ITEM: TIMESTEP
0
ITEM: NUMBER OF ATOMS
42240
ITEM: BOX BOUNDS pp pp pp
-2.6326965465244896e+01 6.7872019244944613e+02
6.7204086869465423e+00 3.6431222831376708e+01
-2.8498805368661841e+01 -9.9931942353671062e+00
ITEM: ATOMS id type x y z mass
1 1 -4.8079 8.32463 -10.7414 12.0112
2 1 -3.52928 8.9376 -11.3058 12.0112
3 2 -15.7955 10.6741 -25.5283 12.0112
4 2 -15.7018 9.63034 -26.4585 12.0112
5 2 -14.4897 9.41203 -27.1591 12.0112
6 2 -13.3569 10.1846 -26.8718 12.0112
7 2 -13.4503 11.2267 -25.9398 12.0112
8 2 -14.6632 11.4463 -25.2405 12.0112
9 2 -12.1577 9.96395 -27.5656 12.0112
10 2 -12.0874 8.94435 -10.014 12.0112
11 2 -13.2134 8.22908 -10.3397 12.0112
12 2 -14.3974 8.45694 -28.1912 12.0112
13 2 -16.9943 10.893 -24.8327 12.0112
14 2 -17.0649 11.9131 -23.8791 12.0112
15 2 -15.9395 12.63 -23.5559 12.0112
16 2 -14.7556 12.4026 -24.2104 12.0112
17 2 -12.3257 12.0584 -25.7526 12.0112
18 2 -11.168 11.8595 -26.46 12.0112
19 2 -11.0735 10.8198 -27.3518 12.0112
20 2 -18.0767 10.0336 -25.0418 12.0112
21 2 -17.9808 8.99164 -25.931 12.0112
22 2 -16.8241 8.79503 -26.6409 12.0112
23 3 -18.3175 12.2055 -23.1385 12.0112
24 3 -19.3456 10.2043 -24.2983 12.0112
25 3 -10.8335 8.65103 -10.7525 12.0112
26 3 -9.80397 10.6486 -28.0939 12.0112
27 4 -18.4019 13.0679 -22.2951 15.9994
28 4 -20.2996 9.48174 -24.4541 15.9994
29 4 -8.85013 11.3715 -27.9368 15.9994
30 4 -10.7503 7.79087 -11.5986 15.9994
31 5 -19.3965 11.3388 -23.4472 14.0067
32 5 -9.75346 9.51533 -10.4411 14.0067
33 1 -8.53443 9.40186 -11.2388 12.0112
34 1 -7.36846 8.61369 -10.6243 12.0112
35 1 -6.04199 9.08737 -11.2149 12.0112
36 6 0.265094 8.03969 -11.207 12.0112
37 1 -2.26281 8.17563 -10.9309 12.0112
38 1 -1.01007 8.80968 -11.5283 12.0112
39 1 -25.6274 11.9055 -22.5641 12.0112
40 1 -24.3517 12.519 -23.1368 12.0112
41 6 675.626 12.8043 -22.6437 12.0112
42 1 676.901 12.0307 -22.3313 12.0112
43 1 678.151 12.6691 -22.929 12.0112
44 1 -20.6183 11.4505 -22.6527 12.0112
45 1 -23.1135 11.7588 -22.671 12.0112
46 1 -21.79 12.219 -23.2804 12.0112
47 7 -4.76487 8.33488 -28.1467 1.00797
48 7 -4.88007 7.26934 -11.0507 1.00797
49 7 -3.44241 9.97815 -10.9512 1.00797
50 7 -3.60495 8.98093 -12.4045 1.00797
51 7 -13.1843 7.49955 -11.1567 1.00797
52 7 -15.2634 7.8851 -10.0328 1.00797
53 7 -15.9689 13.3604 -22.7398 1.00797
54 7 -13.8906 12.9771 -23.8656 1.00797
55 7 -12.3167 12.9022 -25.0563 1.00797
56 7 -10.3193 12.5402 -26.2997 1.00797
57 7 -18.8274 8.30744 -26.0869 1.00797
58 7 -16.832 7.95068 -27.3367 1.00797
59 7 -8.19014 10.423 -11.4663 1.00797
60 7 -8.79405 8.95417 -12.2064 1.00797
61 7 -7.5033 7.53312 -10.792 1.00797
62 7 -7.34346 8.76739 -28.0401 1.00797
63 7 -5.91817 10.1533 -10.9589 1.00797
64 7 -6.09411 9.03175 -12.3132 1.00797
65 7 -2.34398 7.13469 -11.2844 1.00797
66 7 -2.17025 8.13635 -28.3401 1.00797
67 7 -0.910518 9.84432 -11.1612 1.00797
68 7 -1.12337 8.86834 -12.6221 1.00797
69 7 -25.5447 11.8625 -21.4663 1.00797
70 7 -25.7154 10.8654 -22.9181 1.00797
71 7 -24.2787 13.5733 -22.8251 1.00797
72 7 -24.4026 12.5108 -24.2367 1.00797
73 7 675.395 12.7695 -23.7196 1.00797
74 7 675.724 13.8589 -22.3464 1.00797
75 7 676.8 10.9986 -22.7045 1.00797
76 7 677.015 11.9644 -21.2385 1.00797
77 7 678.235 13.707 -22.5677 1.00797
78 7 678.053 12.7163 -24.0244 1.00797
79 7 -20.9532 10.4299 -22.4108 1.00797
80 7 -20.3646 11.9134 -21.6905 1.00797
81 7 -23.2434 10.6893 -22.9101 1.00797
82 7 -23.0487 11.8293 -21.5743 1.00797
83 7 -21.6558 13.3037 -23.1432 1.00797
84 7 -21.8193 12.0362 -24.3648 1.00797
85 7 674.767 12.3802 -22.1002 1.00797
86 7 1.12713 8.4659 -11.7427 1.00797
87 7 0.173474 6.98517 -11.5072 1.00797
88 7 0.486221 8.07368 -10.1296 1.00797
89 1 18.6937 8.32463 -10.7414 12.0112
90 1 19.9723 8.9376 -11.3058 12.0112
91 2 7.70606 10.6741 -25.5283 12.0112
92 2 7.79978 9.63034 -26.4585 12.0112
93 2 9.0119 9.41203 -27.1591 12.0112
94 2 10.1447 10.1846 -26.8718 12.0112
95 2 10.0513 11.2267 -25.9398 12.0112
96 2 8.83836 11.4463 -25.2405 12.0112
97 2 11.3439 9.96395 -27.5656 12.0112
98 2 11.4142 8.94435 -10.014 12.0112
99 2 10.2882 8.22908 -10.3397 12.0112
100 2 9.10415 8.45694 -28.1912 12.0112
101 2 6.50726 10.893 -24.8327 12.0112
102 2 6.43664 11.9131 -23.8791 12.0112
103 2 7.56209 12.63 -23.5559 12.0112
104 2 8.74602 12.4026 -24.2104 12.0112
105 2 11.1758 12.0584 -25.7526 12.0112
106 2 12.3336 11.8595 -26.46 12.0112
107 2 12.4281 10.8198 -27.3518 12.0112
108 2 5.42487 10.0336 -25.0418 12.0112
109 2 5.52079 8.99164 -25.931 12.0112
110 2 6.67744 8.79503 -26.6409 12.0112
111 3 5.18407 12.2055 -23.1385 12.0112
112 3 4.15598 10.2043 -24.2983 12.0112
113 3 12.6681 8.65103 -10.7525 12.0112
114 3 13.6976 10.6486 -28.0939 12.0112
115 4 5.09966 13.0679 -22.2951 15.9994
116 4 3.20199 9.48174 -24.4541 15.9994
117 4 14.6514 11.3715 -27.9368 15.9994
118 4 12.7513 7.79087 -11.5986 15.9994
119 5 4.10503 11.3388 -23.4472 14.0067
120 5 13.7481 9.51533 -10.4411 14.0067
121 1 14.9671 9.40186 -11.2388 12.0112
122 1 16.1331 8.61369 -10.6243 12.0112
123 1 17.4596 9.08737 -11.2149 12.0112
124 6 23.7667 8.03969 -11.207 12.0112
125 1 21.2388 8.17563 -10.9309 12.0112
126 1 22.4915 8.80968 -11.5283 12.0112
127 1 -2.12581 11.9055 -22.5641 12.0112
128 1 -0.850175 12.519 -23.1368 12.0112
129 6 -5.91949 12.8043 -22.6437 12.0112
130 1 -4.64504 12.0307 -22.3313 12.0112
131 1 -3.39438 12.6691 -22.929 12.0112
132 1 2.88323 11.4505 -22.6527 12.0112
133 1 0.388117 11.7588 -22.671 12.0112
134 1 1.71157 12.219 -23.2804 12.0112
135 7 18.7367 8.33488 -28.1467 1.00797
136 7 18.6215 7.26934 -11.0507 1.00797
137 7 20.0592 9.97815 -10.9512 1.00797
138 7 19.8966 8.98093 -12.4045 1.00797
139 7 10.3173 7.49955 -11.1567 1.00797
140 7 8.23819 7.8851 -10.0328 1.00797
141 7 7.5327 13.3604 -22.7398 1.00797
142 7 9.61097 12.9771 -23.8656 1.00797
143 7 11.1848 12.9022 -25.0563 1.00797
144 7 13.1823 12.5402 -26.2997 1.00797
145 7 4.67419 8.30744 -26.0869 1.00797
146 7 6.66955 7.95068 -27.3367 1.00797
147 7 15.3114 10.423 -11.4663 1.00797
148 7 14.7075 8.95417 -12.2064 1.00797
149 7 15.9983 7.53312 -10.792 1.00797
150 7 16.1581 8.76739 -28.0401 1.00797
151 7 17.5834 10.1533 -10.9589 1.00797
152 7 17.4075 9.03175 -12.3132 1.00797
153 7 21.1576 7.13469 -11.2844 1.00797
154 7 21.3313 8.13635 -28.3401 1.00797
155 7 22.5911 9.84432 -11.1612 1.00797
156 7 22.3782 8.86834 -12.6221 1.00797
157 7 -2.04316 11.8625 -21.4663 1.00797
158 7 -2.21384 10.8654 -22.9181 1.00797
159 7 -0.77709 13.5733 -22.8251 1.00797
160 7 -0.901071 12.5108 -24.2367 1.00797
161 7 -6.15034 12.7695 -23.7196 1.00797
162 7 -5.82161 13.8589 -22.3464 1.00797
163 7 -4.74595 10.9986 -22.7045 1.00797
164 7 -4.5301 11.9644 -21.2385 1.00797
165 7 -3.31063 13.707 -22.5677 1.00797
166 7 -3.49302 12.7163 -24.0244 1.00797
167 7 2.54842 10.4299 -22.4108 1.00797
168 7 3.13697 11.9134 -21.6905 1.00797
169 7 0.25814 10.6893 -22.9101 1.00797
170 7 0.452847 11.8293 -21.5743 1.00797
171 7 1.84574 13.3037 -23.1432 1.00797
172 7 1.68227 12.0362 -24.3648 1.00797
173 7 -6.77836 12.3802 -22.1002 1.00797
174 7 24.6287 8.4659 -11.7427 1.00797
175 7 23.675 6.98517 -11.5072 1.00797
176 7 23.9878 8.07368 -10.1296 1.00797
177 1 42.1952 8.32463 -10.7414 12.0112
178 1 43.4739 8.9376 -11.3058 12.0112
179 2 31.2076 10.6741 -25.5283 12.0112
180 2 31.3013 9.63034 -26.4585 12.0112
181 2 32.5135 9.41203 -27.1591 12.0112
182 2 33.6463 10.1846 -26.8718 12.0112
183 2 33.5529 11.2267 -25.9398 12.0112
184 2 32.3399 11.4463 -25.2405 12.0112
185 2 34.8455 9.96395 -27.5656 12.0112
186 2 34.9157 8.94435 -10.014 12.0112
187 2 33.7897 8.22908 -10.3397 12.0112
188 2 32.6057 8.45694 -28.1912 12.0112
189 2 30.0088 10.893 -24.8327 12.0112
190 2 29.9382 11.9131 -23.8791 12.0112
191 2 31.0637 12.63 -23.5559 12.0112
192 2 32.2476 12.4026 -24.2104 12.0112
193 2 34.6774 12.0584 -25.7526 12.0112
194 2 35.8351 11.8595 -26.46 12.0112
195 2 35.9296 10.8198 -27.3518 12.0112
196 2 28.9264 10.0336 -25.0418 12.0112
197 2 29.0224 8.99164 -25.931 12.0112
198 2 30.179 8.79503 -26.6409 12.0112
199 3 28.6856 12.2055 -23.1385 12.0112
200 3 27.6576 10.2043 -24.2983 12.0112
201 3 36.1696 8.65103 -10.7525 12.0112
202 3 37.1992 10.6486 -28.0939 12.0112
203 4 28.6012 13.0679 -22.2951 15.9994
204 4 26.7036 9.48174 -24.4541 15.9994
205 4 38.153 11.3715 -27.9368 15.9994
206 4 36.2528 7.79087 -11.5986 15.9994
207 5 27.6066 11.3388 -23.4472 14.0067
208 5 37.2497 9.51533 -10.4411 14.0067
209 1 38.4687 9.40186 -11.2388 12.0112
210 1 39.6347 8.61369 -10.6243 12.0112
211 1 40.9612 9.08737 -11.2149 12.0112
212 6 47.2682 8.03969 -11.207 12.0112
213 1 44.7403 8.17563 -10.9309 12.0112
214 1 45.9931 8.80968 -11.5283 12.0112
215 1 21.3758 11.9055 -22.5641 12.0112
216 1 22.6514 12.519 -23.1368 12.0112
217 6 17.5821 12.8043 -22.6437 12.0112
218 1 18.8565 12.0307 -22.3313 12.0112
219 1 20.1072 12.6691 -22.929 12.0112
220 1 26.3848 11.4505 -22.6527 12.0112
221 1 23.8897 11.7588 -22.671 12.0112
222 1 25.2131 12.219 -23.2804 12.0112
223 7 42.2383 8.33488 -28.1467 1.00797
224 7 42.1231 7.26934 -11.0507 1.00797
225 7 43.5607 9.97815 -10.9512 1.00797
226 7 43.3982 8.98093 -12.4045 1.00797
227 7 33.8189 7.49955 -11.1567 1.00797
228 7 31.7398 7.8851 -10.0328 1.00797
229 7 31.0343 13.3604 -22.7398 1.00797
230 7 33.1125 12.9771 -23.8656 1.00797
231 7 34.6864 12.9022 -25.0563 1.00797
232 7 36.6839 12.5402 -26.2997 1.00797
233 7 28.1758 8.30744 -26.0869 1.00797
234 7 30.1711 7.95068 -27.3367 1.00797
235 7 38.813 10.423 -11.4663 1.00797
236 7 38.2091 8.95417 -12.2064 1.00797
237 7 39.4998 7.53312 -10.792 1.00797
238 7 39.6597 8.76739 -28.0401 1.00797
239 7 41.085 10.1533 -10.9589 1.00797
240 7 40.909 9.03175 -12.3132 1.00797
241 7 44.6592 7.13469 -11.2844 1.00797
242 7 44.8329 8.13635 -28.3401 1.00797
243 7 46.0926 9.84432 -11.1612 1.00797
244 7 45.8798 8.86834 -12.6221 1.00797
245 7 21.4584 11.8625 -21.4663 1.00797
246 7 21.2877 10.8654 -22.9181 1.00797
247 7 22.7245 13.5733 -22.8251 1.00797
248 7 22.6005 12.5108 -24.2367 1.00797
249 7 17.3512 12.7695 -23.7196 1.00797
250 7 17.68 13.8589 -22.3464 1.00797
251 7 18.7556 10.9986 -22.7045 1.00797
252 7 18.9715 11.9644 -21.2385 1.00797
253 7 20.1909 13.707 -22.5677 1.00797
254 7 20.0086 12.7163 -24.0244 1.00797
255 7 26.05 10.4299 -22.4108 1.00797
256 7 26.6385 11.9134 -21.6905 1.00797
257 7 23.7597 10.6893 -22.9101 1.00797
258 7 23.9544 11.8293 -21.5743 1.00797
259 7 25.3473 13.3037 -23.1432 1.00797
260 7 25.1838 12.0362 -24.3648 1.00797
261 7 16.7232 12.3802 -22.1002 1.00797
262 7 48.1303 8.4659 -11.7427 1.00797
263 7 47.1766 6.98517 -11.5072 1.00797
264 7 47.4894 8.07368 -10.1296 1.00797
265 1 65.6968 8.32463 -10.7414 12.0112
266 1 66.9754 8.9376 -11.3058 12.0112
267 2 54.7092 10.6741 -25.5283 12.0112
268 2 54.8029 9.63034 -26.4585 12.0112
269 2 56.015 9.41203 -27.1591 12.0112
270 2 57.1478 10.1846 -26.8718 12.0112
271 2 57.0544 11.2267 -25.9398 12.0112
272 2 55.8415 11.4463 -25.2405 12.0112
273 2 58.347 9.96395 -27.5656 12.0112
274 2 58.4173 8.94435 -10.014 12.0112
275 2 57.2913 8.22908 -10.3397 12.0112
276 2 56.1073 8.45694 -28.1912 12.0112
277 2 53.5104 10.893 -24.8327 12.0112
278 2 53.4398 11.9131 -23.8791 12.0112
279 2 54.5652 12.63 -23.5559 12.0112
280 2 55.7492 12.4026 -24.2104 12.0112
281 2 58.179 12.0584 -25.7526 12.0112
282 2 59.3367 11.8595 -26.46 12.0112
283 2 59.4312 10.8198 -27.3518 12.0112
284 2 52.428 10.0336 -25.0418 12.0112
285 2 52.5239 8.99164 -25.931 12.0112
286 2 53.6806 8.79503 -26.6409 12.0112
287 3 52.1872 12.2055 -23.1385 12.0112
288 3 51.1591 10.2043 -24.2983 12.0112
289 3 59.6712 8.65103 -10.7525 12.0112
290 3 60.7007 10.6486 -28.0939 12.0112
291 4 52.1028 13.0679 -22.2951 15.9994
292 4 50.2051 9.48174 -24.4541 15.9994
293 4 61.6546 11.3715 -27.9368 15.9994
294 4 59.7544 7.79087 -11.5986 15.9994
295 5 51.1082 11.3388 -23.4472 14.0067
296 5 60.7513 9.51533 -10.4411 14.0067
297 1 61.9703 9.40186 -11.2388 12.0112
298 1 63.1363 8.61369 -10.6243 12.0112
299 1 64.4627 9.08737 -11.2149 12.0112
300 6 70.7698 8.03969 -11.207 12.0112
301 1 68.2419 8.17563 -10.9309 12.0112
302 1 69.4946 8.80968 -11.5283 12.0112
303 1 44.8773 11.9055 -22.5641 12.0112
304 1 46.153 12.519 -23.1368 12.0112
305 6 41.0837 12.8043 -22.6437 12.0112
306 1 42.3581 12.0307 -22.3313 12.0112
307 1 43.6088 12.6691 -22.929 12.0112
308 1 49.8864 11.4505 -22.6527 12.0112
309 1 47.3913 11.7588 -22.671 12.0112
310 1 48.7147 12.219 -23.2804 12.0112
311 7 65.7398 8.33488 -28.1467 1.00797
312 7 65.6246 7.26934 -11.0507 1.00797
313 7 67.0623 9.97815 -10.9512 1.00797
314 7 66.8998 8.98093 -12.4045 1.00797
315 7 57.3205 7.49955 -11.1567 1.00797
316 7 55.2413 7.8851 -10.0328 1.00797
317 7 54.5358 13.3604 -22.7398 1.00797
318 7 56.6141 12.9771 -23.8656 1.00797
319 7 58.188 12.9022 -25.0563 1.00797
320 7 60.1855 12.5402 -26.2997 1.00797
321 7 51.6773 8.30744 -26.0869 1.00797
322 7 53.6727 7.95068 -27.3367 1.00797
323 7 62.3146 10.423 -11.4663 1.00797
324 7 61.7107 8.95417 -12.2064 1.00797
325 7 63.0014 7.53312 -10.792 1.00797
326 7 63.1613 8.76739 -28.0401 1.00797
327 7 64.5865 10.1533 -10.9589 1.00797
328 7 64.4106 9.03175 -12.3132 1.00797
329 7 68.1607 7.13469 -11.2844 1.00797
330 7 68.3345 8.13635 -28.3401 1.00797
331 7 69.5942 9.84432 -11.1612 1.00797
332 7 69.3813 8.86834 -12.6221 1.00797
333 7 44.96 11.8625 -21.4663 1.00797
334 7 44.7893 10.8654 -22.9181 1.00797
335 7 46.2261 13.5733 -22.8251 1.00797
336 7 46.1021 12.5108 -24.2367 1.00797
337 7 40.8528 12.7695 -23.7196 1.00797
338 7 41.1815 13.8589 -22.3464 1.00797
339 7 42.2572 10.9986 -22.7045 1.00797
340 7 42.473 11.9644 -21.2385 1.00797
341 7 43.6925 13.707 -22.5677 1.00797
342 7 43.5101 12.7163 -24.0244 1.00797
343 7 49.5516 10.4299 -22.4108 1.00797
344 7 50.1401 11.9134 -21.6905 1.00797
345 7 47.2613 10.6893 -22.9101 1.00797
346 7 47.456 11.8293 -21.5743 1.00797
347 7 48.8489 13.3037 -23.1432 1.00797
348 7 48.6854 12.0362 -24.3648 1.00797
349 7 40.2248 12.3802 -22.1002 1.00797
350 7 71.6319 8.4659 -11.7427 1.00797
351 7 70.6782 6.98517 -11.5072 1.00797
352 7 70.9909 8.07368 -10.1296 1.00797
353 1 89.1984 8.32463 -10.7414 12.0112
354 1 90.477 8.9376 -11.3058 12.0112
355 2 78.2108 10.6741 -25.5283 12.0112
356 2 78.3045 9.63034 -26.4585 12.0112
357 2 79.5166 9.41203 -27.1591 12.0112
358 2 80.6494 10.1846 -26.8718 12.0112
359 2 80.556 11.2267 -25.9398 12.0112
360 2 79.3431 11.4463 -25.2405 12.0112
361 2 81.8486 9.96395 -27.5656 12.0112
362 2 81.9189 8.94435 -10.014 12.0112
363 2 80.7929 8.22908 -10.3397 12.0112
364 2 79.6089 8.45694 -28.1912 12.0112
365 2 77.012 10.893 -24.8327 12.0112
366 2 76.9414 11.9131 -23.8791 12.0112
367 2 78.0668 12.63 -23.5559 12.0112
368 2 79.2507 12.4026 -24.2104 12.0112
369 2 81.6805 12.0584 -25.7526 12.0112
370 2 82.8383 11.8595 -26.46 12.0112
371 2 82.9328 10.8198 -27.3518 12.0112
372 2 75.9296 10.0336 -25.0418 12.0112
373 2 76.0255 8.99164 -25.931 12.0112
374 2 77.1822 8.79503 -26.6409 12.0112
375 3 75.6888 12.2055 -23.1385 12.0112
376 3 74.6607 10.2043 -24.2983 12.0112
377 3 83.1728 8.65103 -10.7525 12.0112
378 3 84.2023 10.6486 -28.0939 12.0112
379 4 75.6044 13.0679 -22.2951 15.9994
380 4 73.7067 9.48174 -24.4541 15.9994
381 4 85.1562 11.3715 -27.9368 15.9994
382 4 83.256 7.79087 -11.5986 15.9994
383 5 74.6097 11.3388 -23.4472 14.0067
384 5 84.2528 9.51533 -10.4411 14.0067
385 1 85.4719 9.40186 -11.2388 12.0112
386 1 86.6378 8.61369 -10.6243 12.0112
387 1 87.9643 9.08737 -11.2149 12.0112
388 6 94.2714 8.03969 -11.207 12.0112
389 1 91.7435 8.17563 -10.9309 12.0112
390 1 92.9962 8.80968 -11.5283 12.0112
391 1 68.3789 11.9055 -22.5641 12.0112
392 1 69.6545 12.519 -23.1368 12.0112
393 6 64.5852 12.8043 -22.6437 12.0112
394 1 65.8597 12.0307 -22.3313 12.0112
395 1 67.1103 12.6691 -22.929 12.0112
396 1 73.3879 11.4505 -22.6527 12.0112
397 1 70.8928 11.7588 -22.671 12.0112
398 1 72.2163 12.219 -23.2804 12.0112
399 7 89.2414 8.33488 -28.1467 1.00797
400 7 89.1262 7.26934 -11.0507 1.00797
401 7 90.5639 9.97815 -10.9512 1.00797
402 7 90.4013 8.98093 -12.4045 1.00797
403 7 80.822 7.49955 -11.1567 1.00797
404 7 78.7429 7.8851 -10.0328 1.00797
405 7 78.0374 13.3604 -22.7398 1.00797
406 7 80.1157 12.9771 -23.8656 1.00797
407 7 81.6896 12.9022 -25.0563 1.00797
408 7 83.687 12.5402 -26.2997 1.00797
409 7 75.1789 8.30744 -26.0869 1.00797
410 7 77.1743 7.95068 -27.3367 1.00797
411 7 85.8161 10.423 -11.4663 1.00797
412 7 85.2122 8.95417 -12.2064 1.00797
413 7 86.503 7.53312 -10.792 1.00797
414 7 86.6628 8.76739 -28.0401 1.00797
415 7 88.0881 10.1533 -10.9589 1.00797
416 7 87.9122 9.03175 -12.3132 1.00797
417 7 91.6623 7.13469 -11.2844 1.00797
418 7 91.836 8.13635 -28.3401 1.00797
419 7 93.0958 9.84432 -11.1612 1.00797
420 7 92.8829 8.86834 -12.6221 1.00797
421 7 68.4616 11.8625 -21.4663 1.00797
422 7 68.2909 10.8654 -22.9181 1.00797
423 7 69.7276 13.5733 -22.8251 1.00797
424 7 69.6036 12.5108 -24.2367 1.00797
425 7 64.3544 12.7695 -23.7196 1.00797
426 7 64.6831 13.8589 -22.3464 1.00797
427 7 65.7588 10.9986 -22.7045 1.00797
428 7 65.9746 11.9644 -21.2385 1.00797
429 7 67.1941 13.707 -22.5677 1.00797
430 7 67.0117 12.7163 -24.0244 1.00797
431 7 73.0531 10.4299 -22.4108 1.00797
432 7 73.6417 11.9134 -21.6905 1.00797
433 7 70.7629 10.6893 -22.9101 1.00797
434 7 70.9576 11.8293 -21.5743 1.00797
435 7 72.3505 13.3037 -23.1432 1.00797
436 7 72.187 12.0362 -24.3648 1.00797
437 7 63.7264 12.3802 -22.1002 1.00797
438 7 95.1334 8.4659 -11.7427 1.00797
439 7 94.1798 6.98517 -11.5072 1.00797
440 7 94.4925 8.07368 -10.1296 1.00797
441 1 112.7 8.32463 -10.7414 12.0112
442 1 113.979 8.9376 -11.3058 12.0112
443 2 101.712 10.6741 -25.5283 12.0112
444 2 101.806 9.63034 -26.4585 12.0112
445 2 103.018 9.41203 -27.1591 12.0112
446 2 104.151 10.1846 -26.8718 12.0112
447 2 104.058 11.2267 -25.9398 12.0112
448 2 102.845 11.4463 -25.2405 12.0112
449 2 105.35 9.96395 -27.5656 12.0112
450 2 105.42 8.94435 -10.014 12.0112
451 2 104.294 8.22908 -10.3397 12.0112
452 2 103.11 8.45694 -28.1912 12.0112
453 2 100.514 10.893 -24.8327 12.0112
454 2 100.443 11.9131 -23.8791 12.0112
455 2 101.568 12.63 -23.5559 12.0112
456 2 102.752 12.4026 -24.2104 12.0112
457 2 105.182 12.0584 -25.7526 12.0112
458 2 106.34 11.8595 -26.46 12.0112
459 2 106.434 10.8198 -27.3518 12.0112
460 2 99.4312 10.0336 -25.0418 12.0112
461 2 99.5271 8.99164 -25.931 12.0112
462 2 100.684 8.79503 -26.6409 12.0112
463 3 99.1904 12.2055 -23.1385 12.0112
464 3 98.1623 10.2043 -24.2983 12.0112
465 3 106.674 8.65103 -10.7525 12.0112
466 3 107.704 10.6486 -28.0939 12.0112
467 4 99.1059 13.0679 -22.2951 15.9994
468 4 97.2083 9.48174 -24.4541 15.9994
469 4 108.658 11.3715 -27.9368 15.9994
470 4 106.758 7.79087 -11.5986 15.9994
471 5 98.1113 11.3388 -23.4472 14.0067
472 5 107.754 9.51533 -10.4411 14.0067
473 1 108.973 9.40186 -11.2388 12.0112
474 1 110.139 8.61369 -10.6243 12.0112
475 1 111.466 9.08737 -11.2149 12.0112
476 6 117.773 8.03969 -11.207 12.0112
477 1 115.245 8.17563 -10.9309 12.0112
478 1 116.498 8.80968 -11.5283 12.0112
479 1 91.8805 11.9055 -22.5641 12.0112
480 1 93.1561 12.519 -23.1368 12.0112
481 6 88.0868 12.8043 -22.6437 12.0112
482 1 89.3612 12.0307 -22.3313 12.0112
483 1 90.6119 12.6691 -22.929 12.0112
484 1 96.8895 11.4505 -22.6527 12.0112
485 1 94.3944 11.7588 -22.671 12.0112
486 1 95.7179 12.219 -23.2804 12.0112
487 7 112.743 8.33488 -28.1467 1.00797
488 7 112.628 7.26934 -11.0507 1.00797
489 7 114.065 9.97815 -10.9512 1.00797
490 7 113.903 8.98093 -12.4045 1.00797
491 7 104.324 7.49955 -11.1567 1.00797
492 7 102.244 7.8851 -10.0328 1.00797
493 7 101.539 13.3604 -22.7398 1.00797
494 7 103.617 12.9771 -23.8656 1.00797
495 7 105.191 12.9022 -25.0563 1.00797
496 7 107.189 12.5402 -26.2997 1.00797
497 7 98.6805 8.30744 -26.0869 1.00797
498 7 100.676 7.95068 -27.3367 1.00797
499 7 109.318 10.423 -11.4663 1.00797
500 7 108.714 8.95417 -12.2064 1.00797
501 7 110.005 7.53312 -10.792 1.00797
502 7 110.164 8.76739 -28.0401 1.00797
503 7 111.59 10.1533 -10.9589 1.00797
504 7 111.414 9.03175 -12.3132 1.00797
505 7 115.164 7.13469 -11.2844 1.00797
506 7 115.338 8.13635 -28.3401 1.00797
507 7 116.597 9.84432 -11.1612 1.00797
508 7 116.384 8.86834 -12.6221 1.00797
509 7 91.9631 11.8625 -21.4663 1.00797
510 7 91.7924 10.8654 -22.9181 1.00797
511 7 93.2292 13.5733 -22.8251 1.00797
512 7 93.1052 12.5108 -24.2367 1.00797
513 7 87.8559 12.7695 -23.7196 1.00797
514 7 88.1847 13.8589 -22.3464 1.00797
515 7 89.2603 10.9986 -22.7045 1.00797
516 7 89.4762 11.9644 -21.2385 1.00797
517 7 90.6957 13.707 -22.5677 1.00797
518 7 90.5133 12.7163 -24.0244 1.00797
519 7 96.5547 10.4299 -22.4108 1.00797
520 7 97.1433 11.9134 -21.6905 1.00797
521 7 94.2644 10.6893 -22.9101 1.00797
522 7 94.4591 11.8293 -21.5743 1.00797
523 7 95.852 13.3037 -23.1432 1.00797
524 7 95.6886 12.0362 -24.3648 1.00797
525 7 87.2279 12.3802 -22.1002 1.00797
526 7 118.635 8.4659 -11.7427 1.00797
527 7 117.681 6.98517 -11.5072 1.00797
528 7 117.994 8.07368 -10.1296 1.00797
529 1 136.202 8.32463 -10.7414 12.0112
530 1 137.48 8.9376 -11.3058 12.0112
531 2 125.214 10.6741 -25.5283 12.0112
532 2 125.308 9.63034 -26.4585 12.0112
533 2 126.52 9.41203 -27.1591 12.0112
534 2 127.653 10.1846 -26.8718 12.0112
535 2 127.559 11.2267 -25.9398 12.0112
536 2 126.346 11.4463 -25.2405 12.0112
537 2 128.852 9.96395 -27.5656 12.0112
538 2 128.922 8.94435 -10.014 12.0112
539 2 127.796 8.22908 -10.3397 12.0112
540 2 126.612 8.45694 -28.1912 12.0112
541 2 124.015 10.893 -24.8327 12.0112
542 2 123.944 11.9131 -23.8791 12.0112
543 2 125.07 12.63 -23.5559 12.0112
544 2 126.254 12.4026 -24.2104 12.0112
545 2 128.684 12.0584 -25.7526 12.0112
546 2 129.841 11.8595 -26.46 12.0112
547 2 129.936 10.8198 -27.3518 12.0112
548 2 122.933 10.0336 -25.0418 12.0112
549 2 123.029 8.99164 -25.931 12.0112
550 2 124.185 8.79503 -26.6409 12.0112
551 3 122.692 12.2055 -23.1385 12.0112
552 3 121.664 10.2043 -24.2983 12.0112
553 3 130.176 8.65103 -10.7525 12.0112
554 3 131.205 10.6486 -28.0939 12.0112
555 4 122.608 13.0679 -22.2951 15.9994
556 4 120.71 9.48174 -24.4541 15.9994
557 4 132.159 11.3715 -27.9368 15.9994
558 4 130.259 7.79087 -11.5986 15.9994
559 5 121.613 11.3388 -23.4472 14.0067
560 5 131.256 9.51533 -10.4411 14.0067
561 1 132.475 9.40186 -11.2388 12.0112
562 1 133.641 8.61369 -10.6243 12.0112
563 1 134.967 9.08737 -11.2149 12.0112
564 6 141.275 8.03969 -11.207 12.0112
565 1 138.747 8.17563 -10.9309 12.0112
566 1 139.999 8.80968 -11.5283 12.0112
567 1 115.382 11.9055 -22.5641 12.0112
568 1 116.658 12.519 -23.1368 12.0112
569 6 111.588 12.8043 -22.6437 12.0112
570 1 112.863 12.0307 -22.3313 12.0112
571 1 114.113 12.6691 -22.929 12.0112
572 1 120.391 11.4505 -22.6527 12.0112
573 1 117.896 11.7588 -22.671 12.0112
574 1 119.219 12.219 -23.2804 12.0112
575 7 136.245 8.33488 -28.1467 1.00797
576 7 136.129 7.26934 -11.0507 1.00797
577 7 137.567 9.97815 -10.9512 1.00797
578 7 137.404 8.98093 -12.4045 1.00797
579 7 127.825 7.49955 -11.1567 1.00797
580 7 125.746 7.8851 -10.0328 1.00797
581 7 125.041 13.3604 -22.7398 1.00797
582 7 127.119 12.9771 -23.8656 1.00797
583 7 128.693 12.9022 -25.0563 1.00797
584 7 130.69 12.5402 -26.2997 1.00797
585 7 122.182 8.30744 -26.0869 1.00797
586 7 124.177 7.95068 -27.3367 1.00797
587 7 132.819 10.423 -11.4663 1.00797
588 7 132.215 8.95417 -12.2064 1.00797
589 7 133.506 7.53312 -10.792 1.00797
590 7 133.666 8.76739 -28.0401 1.00797
591 7 135.091 10.1533 -10.9589 1.00797
592 7 134.915 9.03175 -12.3132 1.00797
593 7 138.665 7.13469 -11.2844 1.00797
594 7 138.839 8.13635 -28.3401 1.00797
595 7 140.099 9.84432 -11.1612 1.00797
596 7 139.886 8.86834 -12.6221 1.00797
597 7 115.465 11.8625 -21.4663 1.00797
598 7 115.294 10.8654 -22.9181 1.00797
599 7 116.731 13.5733 -22.8251 1.00797
600 7 116.607 12.5108 -24.2367 1.00797
601 7 111.358 12.7695 -23.7196 1.00797
602 7 111.686 13.8589 -22.3464 1.00797
603 7 112.762 10.9986 -22.7045 1.00797
604 7 112.978 11.9644 -21.2385 1.00797
605 7 114.197 13.707 -22.5677 1.00797
606 7 114.015 12.7163 -24.0244 1.00797
607 7 120.056 10.4299 -22.4108 1.00797
608 7 120.645 11.9134 -21.6905 1.00797
609 7 117.766 10.6893 -22.9101 1.00797
610 7 117.961 11.8293 -21.5743 1.00797
611 7 119.354 13.3037 -23.1432 1.00797
612 7 119.19 12.0362 -24.3648 1.00797
613 7 110.73 12.3802 -22.1002 1.00797
614 7 142.137 8.4659 -11.7427 1.00797
615 7 141.183 6.98517 -11.5072 1.00797
616 7 141.496 8.07368 -10.1296 1.00797
617 1 159.703 8.32463 -10.7414 12.0112
618 1 160.982 8.9376 -11.3058 12.0112
619 2 148.715 10.6741 -25.5283 12.0112
620 2 148.809 9.63034 -26.4585 12.0112
621 2 150.021 9.41203 -27.1591 12.0112
622 2 151.154 10.1846 -26.8718 12.0112
623 2 151.061 11.2267 -25.9398 12.0112
624 2 149.848 11.4463 -25.2405 12.0112
625 2 152.353 9.96395 -27.5656 12.0112
626 2 152.424 8.94435 -10.014 12.0112
627 2 151.298 8.22908 -10.3397 12.0112
628 2 150.114 8.45694 -28.1912 12.0112
629 2 147.517 10.893 -24.8327 12.0112
630 2 147.446 11.9131 -23.8791 12.0112
631 2 148.572 12.63 -23.5559 12.0112
632 2 149.755 12.4026 -24.2104 12.0112
633 2 152.185 12.0584 -25.7526 12.0112
634 2 153.343 11.8595 -26.46 12.0112
635 2 153.437 10.8198 -27.3518 12.0112
636 2 146.434 10.0336 -25.0418 12.0112
637 2 146.53 8.99164 -25.931 12.0112
638 2 147.687 8.79503 -26.6409 12.0112
639 3 146.194 12.2055 -23.1385 12.0112
640 3 145.165 10.2043 -24.2983 12.0112
641 3 153.678 8.65103 -10.7525 12.0112
642 3 154.707 10.6486 -28.0939 12.0112
643 4 146.109 13.0679 -22.2951 15.9994
644 4 144.211 9.48174 -24.4541 15.9994
645 4 155.661 11.3715 -27.9368 15.9994
646 4 153.761 7.79087 -11.5986 15.9994
647 5 145.114 11.3388 -23.4472 14.0067
648 5 154.758 9.51533 -10.4411 14.0067
649 1 155.977 9.40186 -11.2388 12.0112
650 1 157.143 8.61369 -10.6243 12.0112
651 1 158.469 9.08737 -11.2149 12.0112
652 6 164.776 8.03969 -11.207 12.0112
653 1 162.248 8.17563 -10.9309 12.0112
654 1 163.501 8.80968 -11.5283 12.0112
655 1 138.884 11.9055 -22.5641 12.0112
656 1 140.159 12.519 -23.1368 12.0112
657 6 135.09 12.8043 -22.6437 12.0112
658 1 136.364 12.0307 -22.3313 12.0112
659 1 137.615 12.6691 -22.929 12.0112
660 1 143.893 11.4505 -22.6527 12.0112
661 1 141.398 11.7588 -22.671 12.0112
662 1 142.721 12.219 -23.2804 12.0112
663 7 159.746 8.33488 -28.1467 1.00797
664 7 159.631 7.26934 -11.0507 1.00797
665 7 161.069 9.97815 -10.9512 1.00797
666 7 160.906 8.98093 -12.4045 1.00797
667 7 151.327 7.49955 -11.1567 1.00797
668 7 149.248 7.8851 -10.0328 1.00797
669 7 148.542 13.3604 -22.7398 1.00797
670 7 150.62 12.9771 -23.8656 1.00797
671 7 152.194 12.9022 -25.0563 1.00797
672 7 154.192 12.5402 -26.2997 1.00797
673 7 145.684 8.30744 -26.0869 1.00797
674 7 147.679 7.95068 -27.3367 1.00797
675 7 156.321 10.423 -11.4663 1.00797
676 7 155.717 8.95417 -12.2064 1.00797
677 7 157.008 7.53312 -10.792 1.00797
678 7 157.168 8.76739 -28.0401 1.00797
679 7 158.593 10.1533 -10.9589 1.00797
680 7 158.417 9.03175 -12.3132 1.00797
681 7 162.167 7.13469 -11.2844 1.00797
682 7 162.341 8.13635 -28.3401 1.00797
683 7 163.6 9.84432 -11.1612 1.00797
684 7 163.388 8.86834 -12.6221 1.00797
685 7 138.966 11.8625 -21.4663 1.00797
686 7 138.796 10.8654 -22.9181 1.00797
687 7 140.232 13.5733 -22.8251 1.00797
688 7 140.108 12.5108 -24.2367 1.00797
689 7 134.859 12.7695 -23.7196 1.00797
690 7 135.188 13.8589 -22.3464 1.00797
691 7 136.263 10.9986 -22.7045 1.00797
692 7 136.479 11.9644 -21.2385 1.00797
693 7 137.699 13.707 -22.5677 1.00797
694 7 137.516 12.7163 -24.0244 1.00797
695 7 143.558 10.4299 -22.4108 1.00797
696 7 144.146 11.9134 -21.6905 1.00797
697 7 141.268 10.6893 -22.9101 1.00797
698 7 141.462 11.8293 -21.5743 1.00797
699 7 142.855 13.3037 -23.1432 1.00797
700 7 142.692 12.0362 -24.3648 1.00797
701 7 134.231 12.3802 -22.1002 1.00797
702 7 165.638 8.4659 -11.7427 1.00797
703 7 164.684 6.98517 -11.5072 1.00797
704 7 164.997 8.07368 -10.1296 1.00797
705 1 183.205 8.32463 -10.7414 12.0112
706 1 184.483 8.9376 -11.3058 12.0112
707 2 172.217 10.6741 -25.5283 12.0112
708 2 172.311 9.63034 -26.4585 12.0112
709 2 173.523 9.41203 -27.1591 12.0112
710 2 174.656 10.1846 -26.8718 12.0112
711 2 174.562 11.2267 -25.9398 12.0112
712 2 173.349 11.4463 -25.2405 12.0112
713 2 175.855 9.96395 -27.5656 12.0112
714 2 175.925 8.94435 -10.014 12.0112
715 2 174.799 8.22908 -10.3397 12.0112
716 2 173.615 8.45694 -28.1912 12.0112
717 2 171.018 10.893 -24.8327 12.0112
718 2 170.948 11.9131 -23.8791 12.0112
719 2 172.073 12.63 -23.5559 12.0112
720 2 173.257 12.4026 -24.2104 12.0112
721 2 175.687 12.0584 -25.7526 12.0112
722 2 176.845 11.8595 -26.46 12.0112
723 2 176.939 10.8198 -27.3518 12.0112
724 2 169.936 10.0336 -25.0418 12.0112
725 2 170.032 8.99164 -25.931 12.0112
726 2 171.188 8.79503 -26.6409 12.0112
727 3 169.695 12.2055 -23.1385 12.0112
728 3 168.667 10.2043 -24.2983 12.0112
729 3 177.179 8.65103 -10.7525 12.0112
730 3 178.209 10.6486 -28.0939 12.0112
731 4 169.611 13.0679 -22.2951 15.9994
732 4 167.713 9.48174 -24.4541 15.9994
733 4 179.162 11.3715 -27.9368 15.9994
734 4 177.262 7.79087 -11.5986 15.9994
735 5 168.616 11.3388 -23.4472 14.0067
736 5 178.259 9.51533 -10.4411 14.0067
737 1 179.478 9.40186 -11.2388 12.0112
738 1 180.644 8.61369 -10.6243 12.0112
739 1 181.971 9.08737 -11.2149 12.0112
740 6 188.278 8.03969 -11.207 12.0112
741 1 185.75 8.17563 -10.9309 12.0112
742 1 187.003 8.80968 -11.5283 12.0112
743 1 162.385 11.9055 -22.5641 12.0112
744 1 163.661 12.519 -23.1368 12.0112
745 6 158.592 12.8043 -22.6437 12.0112
746 1 159.866 12.0307 -22.3313 12.0112
747 1 161.117 12.6691 -22.929 12.0112
748 1 167.394 11.4505 -22.6527 12.0112
749 1 164.899 11.7588 -22.671 12.0112
750 1 166.223 12.219 -23.2804 12.0112
751 7 183.248 8.33488 -28.1467 1.00797
752 7 183.133 7.26934 -11.0507 1.00797
753 7 184.57 9.97815 -10.9512 1.00797
754 7 184.408 8.98093 -12.4045 1.00797
755 7 174.828 7.49955 -11.1567 1.00797
756 7 172.749 7.8851 -10.0328 1.00797
757 7 172.044 13.3604 -22.7398 1.00797
758 7 174.122 12.9771 -23.8656 1.00797
759 7 175.696 12.9022 -25.0563 1.00797
760 7 177.693 12.5402 -26.2997 1.00797
761 7 169.185 8.30744 -26.0869 1.00797
762 7 171.181 7.95068 -27.3367 1.00797
763 7 179.822 10.423 -11.4663 1.00797
764 7 179.219 8.95417 -12.2064 1.00797
765 7 180.509 7.53312 -10.792 1.00797
766 7 180.669 8.76739 -28.0401 1.00797
767 7 182.094 10.1533 -10.9589 1.00797
768 7 181.918 9.03175 -12.3132 1.00797