Create LAMMPS data for SED method by using LT_Codes

512 atoms

1 atom types

        0.0000000000        87.2000000000 xlo xhi
        0.0000000000        10.9000000000 ylo yhi
        0.0000000000        10.9000000000 zlo zhi

Masses

1        28.0855000000 

Atoms

1 1         4.7687500000         4.7687500000         4.7687500000  # Si
2 1         4.7687500000         2.0437500000         2.0437500000  # Si
3 1         2.0437500000         4.7687500000         2.0437500000  # Si
4 1         2.0437500000         2.0437500000         4.7687500000  # Si
5 1         0.6812500000         0.6812500000         0.6812500000  # Si
6 1         0.6812500000         3.4062500000         3.4062500000  # Si
7 1         3.4062500000         0.6812500000         3.4062500000  # Si
8 1         3.4062500000         3.4062500000         0.6812500000  # Si
9 1         4.7687500000         4.7687500000        10.2187500000  # Si
10 1         4.7687500000         2.0437500000         7.4937500000  # Si
11 1         2.0437500000         4.7687500000         7.4937500000  # Si
12 1         2.0437500000         2.0437500000        10.2187500000  # Si
13 1         0.6812500000         0.6812500000         6.1312500000  # Si
14 1         0.6812500000         3.4062500000         8.8562500000  # Si
15 1         3.4062500000         0.6812500000         8.8562500000  # Si
16 1         3.4062500000         3.4062500000         6.1312500000  # Si
17 1         4.7687500000        10.2187500000         4.7687500000  # Si
18 1         4.7687500000         7.4937500000         2.0437500000  # Si
19 1         2.0437500000        10.2187500000         2.0437500000  # Si
20 1         2.0437500000         7.4937500000         4.7687500000  # Si
21 1         0.6812500000         6.1312500000         0.6812500000  # Si
22 1         0.6812500000         8.8562500000         3.4062500000  # Si
23 1         3.4062500000         6.1312500000         3.4062500000  # Si
24 1         3.4062500000         8.8562500000         0.6812500000  # Si
25 1         4.7687500000        10.2187500000        10.2187500000  # Si
26 1         4.7687500000         7.4937500000         7.4937500000  # Si
27 1         2.0437500000        10.2187500000         7.4937500000  # Si
28 1         2.0437500000         7.4937500000        10.2187500000  # Si
29 1         0.6812500000         6.1312500000         6.1312500000  # Si
30 1         0.6812500000         8.8562500000         8.8562500000  # Si
31 1         3.4062500000         6.1312500000         8.8562500000  # Si
32 1         3.4062500000         8.8562500000         6.1312500000  # Si
33 1        10.2187500000         4.7687500000         4.7687500000  # Si
34 1        10.2187500000         2.0437500000         2.0437500000  # Si
35 1         7.4937500000         4.7687500000         2.0437500000  # Si
36 1         7.4937500000         2.0437500000         4.7687500000  # Si
37 1         6.1312500000         0.6812500000         0.6812500000  # Si
38 1         6.1312500000         3.4062500000         3.4062500000  # Si
39 1         8.8562500000         0.6812500000         3.4062500000  # Si
40 1         8.8562500000         3.4062500000         0.6812500000  # Si
41 1        10.2187500000         4.7687500000        10.2187500000  # Si
42 1        10.2187500000         2.0437500000         7.4937500000  # Si
43 1         7.4937500000         4.7687500000         7.4937500000  # Si
44 1         7.4937500000         2.0437500000        10.2187500000  # Si
45 1         6.1312500000         0.6812500000         6.1312500000  # Si
46 1         6.1312500000         3.4062500000         8.8562500000  # Si
47 1         8.8562500000         0.6812500000         8.8562500000  # Si
48 1         8.8562500000         3.4062500000         6.1312500000  # Si
49 1        10.2187500000        10.2187500000         4.7687500000  # Si
50 1        10.2187500000         7.4937500000         2.0437500000  # Si
51 1         7.4937500000        10.2187500000         2.0437500000  # Si
52 1         7.4937500000         7.4937500000         4.7687500000  # Si
53 1         6.1312500000         6.1312500000         0.6812500000  # Si
54 1         6.1312500000         8.8562500000         3.4062500000  # Si
55 1         8.8562500000         6.1312500000         3.4062500000  # Si
56 1         8.8562500000         8.8562500000         0.6812500000  # Si
57 1        10.2187500000        10.2187500000        10.2187500000  # Si
58 1        10.2187500000         7.4937500000         7.4937500000  # Si
59 1         7.4937500000        10.2187500000         7.4937500000  # Si
60 1         7.4937500000         7.4937500000        10.2187500000  # Si
61 1         6.1312500000         6.1312500000         6.1312500000  # Si
62 1         6.1312500000         8.8562500000         8.8562500000  # Si
63 1         8.8562500000         6.1312500000         8.8562500000  # Si
64 1         8.8562500000         8.8562500000         6.1312500000  # Si
65 1        15.6687500000         4.7687500000         4.7687500000  # Si
66 1        15.6687500000         2.0437500000         2.0437500000  # Si
67 1        12.9437500000         4.7687500000         2.0437500000  # Si
68 1        12.9437500000         2.0437500000         4.7687500000  # Si
69 1        11.5812500000         0.6812500000         0.6812500000  # Si
70 1        11.5812500000         3.4062500000         3.4062500000  # Si
71 1        14.3062500000         0.6812500000         3.4062500000  # Si
72 1        14.3062500000         3.4062500000         0.6812500000  # Si
73 1        15.6687500000         4.7687500000        10.2187500000  # Si
74 1        15.6687500000         2.0437500000         7.4937500000  # Si
75 1        12.9437500000         4.7687500000         7.4937500000  # Si
76 1        12.9437500000         2.0437500000        10.2187500000  # Si
77 1        11.5812500000         0.6812500000         6.1312500000  # Si
78 1        11.5812500000         3.4062500000         8.8562500000  # Si
79 1        14.3062500000         0.6812500000         8.8562500000  # Si
80 1        14.3062500000         3.4062500000         6.1312500000  # Si
81 1        15.6687500000        10.2187500000         4.7687500000  # Si
82 1        15.6687500000         7.4937500000         2.0437500000  # Si
83 1        12.9437500000        10.2187500000         2.0437500000  # Si
84 1        12.9437500000         7.4937500000         4.7687500000  # Si
85 1        11.5812500000         6.1312500000         0.6812500000  # Si
86 1        11.5812500000         8.8562500000         3.4062500000  # Si
87 1        14.3062500000         6.1312500000         3.4062500000  # Si
88 1        14.3062500000         8.8562500000         0.6812500000  # Si
89 1        15.6687500000        10.2187500000        10.2187500000  # Si
90 1        15.6687500000         7.4937500000         7.4937500000  # Si
91 1        12.9437500000        10.2187500000         7.4937500000  # Si
92 1        12.9437500000         7.4937500000        10.2187500000  # Si
93 1        11.5812500000         6.1312500000         6.1312500000  # Si
94 1        11.5812500000         8.8562500000         8.8562500000  # Si
95 1        14.3062500000         6.1312500000         8.8562500000  # Si
96 1        14.3062500000         8.8562500000         6.1312500000  # Si
97 1        21.1187500000         4.7687500000         4.7687500000  # Si
98 1        21.1187500000         2.0437500000         2.0437500000  # Si
99 1        18.3937500000         4.7687500000         2.0437500000  # Si
100 1        18.3937500000         2.0437500000         4.7687500000  # Si
101 1        17.0312500000         0.6812500000         0.6812500000  # Si
102 1        17.0312500000         3.4062500000         3.4062500000  # Si
103 1        19.7562500000         0.6812500000         3.4062500000  # Si
104 1        19.7562500000         3.4062500000         0.6812500000  # Si
105 1        21.1187500000         4.7687500000        10.2187500000  # Si
106 1        21.1187500000         2.0437500000         7.4937500000  # Si
107 1        18.3937500000         4.7687500000         7.4937500000  # Si
108 1        18.3937500000         2.0437500000        10.2187500000  # Si
109 1        17.0312500000         0.6812500000         6.1312500000  # Si
110 1        17.0312500000         3.4062500000         8.8562500000  # Si
111 1        19.7562500000         0.6812500000         8.8562500000  # Si
112 1        19.7562500000         3.4062500000         6.1312500000  # Si
113 1        21.1187500000        10.2187500000         4.7687500000  # Si
114 1        21.1187500000         7.4937500000         2.0437500000  # Si
115 1        18.3937500000        10.2187500000         2.0437500000  # Si
116 1        18.3937500000         7.4937500000         4.7687500000  # Si
117 1        17.0312500000         6.1312500000         0.6812500000  # Si
118 1        17.0312500000         8.8562500000         3.4062500000  # Si
119 1        19.7562500000         6.1312500000         3.4062500000  # Si
120 1        19.7562500000         8.8562500000         0.6812500000  # Si
121 1        21.1187500000        10.2187500000        10.2187500000  # Si
122 1        21.1187500000         7.4937500000         7.4937500000  # Si
123 1        18.3937500000        10.2187500000         7.4937500000  # Si
124 1        18.3937500000         7.4937500000        10.2187500000  # Si
125 1        17.0312500000         6.1312500000         6.1312500000  # Si
126 1        17.0312500000         8.8562500000         8.8562500000  # Si
127 1        19.7562500000         6.1312500000         8.8562500000  # Si
128 1        19.7562500000         8.8562500000         6.1312500000  # Si
129 1        26.5687500000         4.7687500000         4.7687500000  # Si
130 1        26.5687500000         2.0437500000         2.0437500000  # Si
131 1        23.8437500000         4.7687500000         2.0437500000  # Si
132 1        23.8437500000         2.0437500000         4.7687500000  # Si
133 1        22.4812500000         0.6812500000         0.6812500000  # Si
134 1        22.4812500000         3.4062500000         3.4062500000  # Si
135 1        25.2062500000         0.6812500000         3.4062500000  # Si
136 1        25.2062500000         3.4062500000         0.6812500000  # Si
137 1        26.5687500000         4.7687500000        10.2187500000  # Si
138 1        26.5687500000         2.0437500000         7.4937500000  # Si
139 1        23.8437500000         4.7687500000         7.4937500000  # Si
140 1        23.8437500000         2.0437500000        10.2187500000  # Si
141 1        22.4812500000         0.6812500000         6.1312500000  # Si
142 1        22.4812500000         3.4062500000         8.8562500000  # Si
143 1        25.2062500000         0.6812500000         8.8562500000  # Si
144 1        25.2062500000         3.4062500000         6.1312500000  # Si
145 1        26.5687500000        10.2187500000         4.7687500000  # Si
146 1        26.5687500000         7.4937500000         2.0437500000  # Si
147 1        23.8437500000        10.2187500000         2.0437500000  # Si
148 1        23.8437500000         7.4937500000         4.7687500000  # Si
149 1        22.4812500000         6.1312500000         0.6812500000  # Si
150 1        22.4812500000         8.8562500000         3.4062500000  # Si
151 1        25.2062500000         6.1312500000         3.4062500000  # Si
152 1        25.2062500000         8.8562500000         0.6812500000  # Si
153 1        26.5687500000        10.2187500000        10.2187500000  # Si
154 1        26.5687500000         7.4937500000         7.4937500000  # Si
155 1        23.8437500000        10.2187500000         7.4937500000  # Si
156 1        23.8437500000         7.4937500000        10.2187500000  # Si
157 1        22.4812500000         6.1312500000         6.1312500000  # Si
158 1        22.4812500000         8.8562500000         8.8562500000  # Si
159 1        25.2062500000         6.1312500000         8.8562500000  # Si
160 1        25.2062500000         8.8562500000         6.1312500000  # Si
161 1        32.0187500000         4.7687500000         4.7687500000  # Si
162 1        32.0187500000         2.0437500000         2.0437500000  # Si
163 1        29.2937500000         4.7687500000         2.0437500000  # Si
164 1        29.2937500000         2.0437500000         4.7687500000  # Si
165 1        27.9312500000         0.6812500000         0.6812500000  # Si
166 1        27.9312500000         3.4062500000         3.4062500000  # Si
167 1        30.6562500000         0.6812500000         3.4062500000  # Si
168 1        30.6562500000         3.4062500000         0.6812500000  # Si
169 1        32.0187500000         4.7687500000        10.2187500000  # Si
170 1        32.0187500000         2.0437500000         7.4937500000  # Si
171 1        29.2937500000         4.7687500000         7.4937500000  # Si
172 1        29.2937500000         2.0437500000        10.2187500000  # Si
173 1        27.9312500000         0.6812500000         6.1312500000  # Si
174 1        27.9312500000         3.4062500000         8.8562500000  # Si
175 1        30.6562500000         0.6812500000         8.8562500000  # Si
176 1        30.6562500000         3.4062500000         6.1312500000  # Si
177 1        32.0187500000        10.2187500000         4.7687500000  # Si
178 1        32.0187500000         7.4937500000         2.0437500000  # Si
179 1        29.2937500000        10.2187500000         2.0437500000  # Si
180 1        29.2937500000         7.4937500000         4.7687500000  # Si
181 1        27.9312500000         6.1312500000         0.6812500000  # Si
182 1        27.9312500000         8.8562500000         3.4062500000  # Si
183 1        30.6562500000         6.1312500000         3.4062500000  # Si
184 1        30.6562500000         8.8562500000         0.6812500000  # Si
185 1        32.0187500000        10.2187500000        10.2187500000  # Si
186 1        32.0187500000         7.4937500000         7.4937500000  # Si
187 1        29.2937500000        10.2187500000         7.4937500000  # Si
188 1        29.2937500000         7.4937500000        10.2187500000  # Si
189 1        27.9312500000         6.1312500000         6.1312500000  # Si
190 1        27.9312500000         8.8562500000         8.8562500000  # Si
191 1        30.6562500000         6.1312500000         8.8562500000  # Si
192 1        30.6562500000         8.8562500000         6.1312500000  # Si
193 1        37.4687500000         4.7687500000         4.7687500000  # Si
194 1        37.4687500000         2.0437500000         2.0437500000  # Si
195 1        34.7437500000         4.7687500000         2.0437500000  # Si
196 1        34.7437500000         2.0437500000         4.7687500000  # Si
197 1        33.3812500000         0.6812500000         0.6812500000  # Si
198 1        33.3812500000         3.4062500000         3.4062500000  # Si
199 1        36.1062500000         0.6812500000         3.4062500000  # Si
200 1        36.1062500000         3.4062500000         0.6812500000  # Si
201 1        37.4687500000         4.7687500000        10.2187500000  # Si
202 1        37.4687500000         2.0437500000         7.4937500000  # Si
203 1        34.7437500000         4.7687500000         7.4937500000  # Si
204 1        34.7437500000         2.0437500000        10.2187500000  # Si
205 1        33.3812500000         0.6812500000         6.1312500000  # Si
206 1        33.3812500000         3.4062500000         8.8562500000  # Si
207 1        36.1062500000         0.6812500000         8.8562500000  # Si
208 1        36.1062500000         3.4062500000         6.1312500000  # Si
209 1        37.4687500000        10.2187500000         4.7687500000  # Si
210 1        37.4687500000         7.4937500000         2.0437500000  # Si
211 1        34.7437500000        10.2187500000         2.0437500000  # Si
212 1        34.7437500000         7.4937500000         4.7687500000  # Si
213 1        33.3812500000         6.1312500000         0.6812500000  # Si
214 1        33.3812500000         8.8562500000         3.4062500000  # Si
215 1        36.1062500000         6.1312500000         3.4062500000  # Si
216 1        36.1062500000         8.8562500000         0.6812500000  # Si
217 1        37.4687500000        10.2187500000        10.2187500000  # Si
218 1        37.4687500000         7.4937500000         7.4937500000  # Si
219 1        34.7437500000        10.2187500000         7.4937500000  # Si
220 1        34.7437500000         7.4937500000        10.2187500000  # Si
221 1        33.3812500000         6.1312500000         6.1312500000  # Si
222 1        33.3812500000         8.8562500000         8.8562500000  # Si
223 1        36.1062500000         6.1312500000         8.8562500000  # Si
224 1        36.1062500000         8.8562500000         6.1312500000  # Si
225 1        42.9187500000         4.7687500000         4.7687500000  # Si
226 1        42.9187500000         2.0437500000         2.0437500000  # Si
227 1        40.1937500000         4.7687500000         2.0437500000  # Si
228 1        40.1937500000         2.0437500000         4.7687500000  # Si
229 1        38.8312500000         0.6812500000         0.6812500000  # Si
230 1        38.8312500000         3.4062500000         3.4062500000  # Si
231 1        41.5562500000         0.6812500000         3.4062500000  # Si
232 1        41.5562500000         3.4062500000         0.6812500000  # Si
233 1        42.9187500000         4.7687500000        10.2187500000  # Si
234 1        42.9187500000         2.0437500000         7.4937500000  # Si
235 1        40.1937500000         4.7687500000         7.4937500000  # Si
236 1        40.1937500000         2.0437500000        10.2187500000  # Si
237 1        38.8312500000         0.6812500000         6.1312500000  # Si
238 1        38.8312500000         3.4062500000         8.8562500000  # Si
239 1        41.5562500000         0.6812500000         8.8562500000  # Si
240 1        41.5562500000         3.4062500000         6.1312500000  # Si
241 1        42.9187500000        10.2187500000         4.7687500000  # Si
242 1        42.9187500000         7.4937500000         2.0437500000  # Si
243 1        40.1937500000        10.2187500000         2.0437500000  # Si
244 1        40.1937500000         7.4937500000         4.7687500000  # Si
245 1        38.8312500000         6.1312500000         0.6812500000  # Si
246 1        38.8312500000         8.8562500000         3.4062500000  # Si
247 1        41.5562500000         6.1312500000         3.4062500000  # Si
248 1        41.5562500000         8.8562500000         0.6812500000  # Si
249 1        42.9187500000        10.2187500000        10.2187500000  # Si
250 1        42.9187500000         7.4937500000         7.4937500000  # Si
251 1        40.1937500000        10.2187500000         7.4937500000  # Si
252 1        40.1937500000         7.4937500000        10.2187500000  # Si
253 1        38.8312500000         6.1312500000         6.1312500000  # Si
254 1        38.8312500000         8.8562500000         8.8562500000  # Si
255 1        41.5562500000         6.1312500000         8.8562500000  # Si
256 1        41.5562500000         8.8562500000         6.1312500000  # Si
257 1        48.3687500000         4.7687500000         4.7687500000  # Si
258 1        48.3687500000         2.0437500000         2.0437500000  # Si
259 1        45.6437500000         4.7687500000         2.0437500000  # Si
260 1        45.6437500000         2.0437500000         4.7687500000  # Si
261 1        44.2812500000         0.6812500000         0.6812500000  # Si
262 1        44.2812500000         3.4062500000         3.4062500000  # Si
263 1        47.0062500000         0.6812500000         3.4062500000  # Si
264 1        47.0062500000         3.4062500000         0.6812500000  # Si
265 1        48.3687500000         4.7687500000        10.2187500000  # Si
266 1        48.3687500000         2.0437500000         7.4937500000  # Si
267 1        45.6437500000         4.7687500000         7.4937500000  # Si
268 1        45.6437500000         2.0437500000        10.2187500000  # Si
269 1        44.2812500000         0.6812500000         6.1312500000  # Si
270 1        44.2812500000         3.4062500000         8.8562500000  # Si
271 1        47.0062500000         0.6812500000         8.8562500000  # Si
272 1        47.0062500000         3.4062500000         6.1312500000  # Si
273 1        48.3687500000        10.2187500000         4.7687500000  # Si
274 1        48.3687500000         7.4937500000         2.0437500000  # Si
275 1        45.6437500000        10.2187500000         2.0437500000  # Si
276 1        45.6437500000         7.4937500000         4.7687500000  # Si
277 1        44.2812500000         6.1312500000         0.6812500000  # Si
278 1        44.2812500000         8.8562500000         3.4062500000  # Si
279 1        47.0062500000         6.1312500000         3.4062500000  # Si
280 1        47.0062500000         8.8562500000         0.6812500000  # Si
281 1        48.3687500000        10.2187500000        10.2187500000  # Si
282 1        48.3687500000         7.4937500000         7.4937500000  # Si
283 1        45.6437500000        10.2187500000         7.4937500000  # Si
284 1        45.6437500000         7.4937500000        10.2187500000  # Si
285 1        44.2812500000         6.1312500000         6.1312500000  # Si
286 1        44.2812500000         8.8562500000         8.8562500000  # Si
287 1        47.0062500000         6.1312500000         8.8562500000  # Si
288 1        47.0062500000         8.8562500000         6.1312500000  # Si
289 1        53.8187500000         4.7687500000         4.7687500000  # Si
290 1        53.8187500000         2.0437500000         2.0437500000  # Si
291 1        51.0937500000         4.7687500000         2.0437500000  # Si
292 1        51.0937500000         2.0437500000         4.7687500000  # Si
293 1        49.7312500000         0.6812500000         0.6812500000  # Si
294 1        49.7312500000         3.4062500000         3.4062500000  # Si
295 1        52.4562500000         0.6812500000         3.4062500000  # Si
296 1        52.4562500000         3.4062500000         0.6812500000  # Si
297 1        53.8187500000         4.7687500000        10.2187500000  # Si
298 1        53.8187500000         2.0437500000         7.4937500000  # Si
299 1        51.0937500000         4.7687500000         7.4937500000  # Si
300 1        51.0937500000         2.0437500000        10.2187500000  # Si
301 1        49.7312500000         0.6812500000         6.1312500000  # Si
302 1        49.7312500000         3.4062500000         8.8562500000  # Si
303 1        52.4562500000         0.6812500000         8.8562500000  # Si
304 1        52.4562500000         3.4062500000         6.1312500000  # Si
305 1        53.8187500000        10.2187500000         4.7687500000  # Si
306 1        53.8187500000         7.4937500000         2.0437500000  # Si
307 1        51.0937500000        10.2187500000         2.0437500000  # Si
308 1        51.0937500000         7.4937500000         4.7687500000  # Si
309 1        49.7312500000         6.1312500000         0.6812500000  # Si
310 1        49.7312500000         8.8562500000         3.4062500000  # Si
311 1        52.4562500000         6.1312500000         3.4062500000  # Si
312 1        52.4562500000         8.8562500000         0.6812500000  # Si
313 1        53.8187500000        10.2187500000        10.2187500000  # Si
314 1        53.8187500000         7.4937500000         7.4937500000  # Si
315 1        51.0937500000        10.2187500000         7.4937500000  # Si
316 1        51.0937500000         7.4937500000        10.2187500000  # Si
317 1        49.7312500000         6.1312500000         6.1312500000  # Si
318 1        49.7312500000         8.8562500000         8.8562500000  # Si
319 1        52.4562500000         6.1312500000         8.8562500000  # Si
320 1        52.4562500000         8.8562500000         6.1312500000  # Si
321 1        59.2687500000         4.7687500000         4.7687500000  # Si
322 1        59.2687500000         2.0437500000         2.0437500000  # Si
323 1        56.5437500000         4.7687500000         2.0437500000  # Si
324 1        56.5437500000         2.0437500000         4.7687500000  # Si
325 1        55.1812500000         0.6812500000         0.6812500000  # Si
326 1        55.1812500000         3.4062500000         3.4062500000  # Si
327 1        57.9062500000         0.6812500000         3.4062500000  # Si
328 1        57.9062500000         3.4062500000         0.6812500000  # Si
329 1        59.2687500000         4.7687500000        10.2187500000  # Si
330 1        59.2687500000         2.0437500000         7.4937500000  # Si
331 1        56.5437500000         4.7687500000         7.4937500000  # Si
332 1        56.5437500000         2.0437500000        10.2187500000  # Si
333 1        55.1812500000         0.6812500000         6.1312500000  # Si
334 1        55.1812500000         3.4062500000         8.8562500000  # Si
335 1        57.9062500000         0.6812500000         8.8562500000  # Si
336 1        57.9062500000         3.4062500000         6.1312500000  # Si
337 1        59.2687500000        10.2187500000         4.7687500000  # Si
338 1        59.2687500000         7.4937500000         2.0437500000  # Si
339 1        56.5437500000        10.2187500000         2.0437500000  # Si
340 1        56.5437500000         7.4937500000         4.7687500000  # Si
341 1        55.1812500000         6.1312500000         0.6812500000  # Si
342 1        55.1812500000         8.8562500000         3.4062500000  # Si
343 1        57.9062500000         6.1312500000         3.4062500000  # Si
344 1        57.9062500000         8.8562500000         0.6812500000  # Si
345 1        59.2687500000        10.2187500000        10.2187500000  # Si
346 1        59.2687500000         7.4937500000         7.4937500000  # Si
347 1        56.5437500000        10.2187500000         7.4937500000  # Si
348 1        56.5437500000         7.4937500000        10.2187500000  # Si
349 1        55.1812500000         6.1312500000         6.1312500000  # Si
350 1        55.1812500000         8.8562500000         8.8562500000  # Si
351 1        57.9062500000         6.1312500000         8.8562500000  # Si
352 1        57.9062500000         8.8562500000         6.1312500000  # Si
353 1        64.7187500000         4.7687500000         4.7687500000  # Si
354 1        64.7187500000         2.0437500000         2.0437500000  # Si
355 1        61.9937500000         4.7687500000         2.0437500000  # Si
356 1        61.9937500000         2.0437500000         4.7687500000  # Si
357 1        60.6312500000         0.6812500000         0.6812500000  # Si
358 1        60.6312500000         3.4062500000         3.4062500000  # Si
359 1        63.3562500000         0.6812500000         3.4062500000  # Si
360 1        63.3562500000         3.4062500000         0.6812500000  # Si
361 1        64.7187500000         4.7687500000        10.2187500000  # Si
362 1        64.7187500000         2.0437500000         7.4937500000  # Si
363 1        61.9937500000         4.7687500000         7.4937500000  # Si
364 1        61.9937500000         2.0437500000        10.2187500000  # Si
365 1        60.6312500000         0.6812500000         6.1312500000  # Si
366 1        60.6312500000         3.4062500000         8.8562500000  # Si
367 1        63.3562500000         0.6812500000         8.8562500000  # Si
368 1        63.3562500000         3.4062500000         6.1312500000  # Si
369 1        64.7187500000        10.2187500000         4.7687500000  # Si
370 1        64.7187500000         7.4937500000         2.0437500000  # Si
371 1        61.9937500000        10.2187500000         2.0437500000  # Si
372 1        61.9937500000         7.4937500000         4.7687500000  # Si
373 1        60.6312500000         6.1312500000         0.6812500000  # Si
374 1        60.6312500000         8.8562500000         3.4062500000  # Si
375 1        63.3562500000         6.1312500000         3.4062500000  # Si
376 1        63.3562500000         8.8562500000         0.6812500000  # Si
377 1        64.7187500000        10.2187500000        10.2187500000  # Si
378 1        64.7187500000         7.4937500000         7.4937500000  # Si
379 1        61.9937500000        10.2187500000         7.4937500000  # Si
380 1        61.9937500000         7.4937500000        10.2187500000  # Si
381 1        60.6312500000         6.1312500000         6.1312500000  # Si
382 1        60.6312500000         8.8562500000         8.8562500000  # Si
383 1        63.3562500000         6.1312500000         8.8562500000  # Si
384 1        63.3562500000         8.8562500000         6.1312500000  # Si
385 1        70.1687500000         4.7687500000         4.7687500000  # Si
386 1        70.1687500000         2.0437500000         2.0437500000  # Si
387 1        67.4437500000         4.7687500000         2.0437500000  # Si
388 1        67.4437500000         2.0437500000         4.7687500000  # Si
389 1        66.0812500000         0.6812500000         0.6812500000  # Si
390 1        66.0812500000         3.4062500000         3.4062500000  # Si
391 1        68.8062500000         0.6812500000         3.4062500000  # Si
392 1        68.8062500000         3.4062500000         0.6812500000  # Si
393 1        70.1687500000         4.7687500000        10.2187500000  # Si
394 1        70.1687500000         2.0437500000         7.4937500000  # Si
395 1        67.4437500000         4.7687500000         7.4937500000  # Si
396 1        67.4437500000         2.0437500000        10.2187500000  # Si
397 1        66.0812500000         0.6812500000         6.1312500000  # Si