 # Zr1068 O3100 C100 Nb133 Y133 Yb133 Ta133
 
        4800  atoms
           7  atom types
 
      0.000000000000     364.380000000000  xlo xhi
      0.000000000000      14.575200000000  ylo yhi
      0.000000000000      10.629100000000  zlo zhi
 
Masses
 
            1   91.22400000             # Zr
            2   15.99900000             # O
            3   15.99900000             # C
            4   92.90638000             # Nb
            5   88.90585000             # Y
            6   173.05400000            # Yb
            7   180.94788000            # Ta
 
Atoms # charge
 
1 6 3.7 0 0 0 
2 4 2.5 1.8219 1.8219 2.65727 
3 2 -1.6 1.8219 0 1.03078 
4 2 -1.6 0 1.8219 1.6265 
5 2 -1.6 3.6438 1.8219 4.28377 
6 2 -1.6 1.8219 0 3.68805 
7 1 3.1 0 3.6438 0 
8 4 2.5 1.8219 5.4657 2.65727 
9 2 -1.6 1.8219 3.6438 1.03078 
10 2 -1.6 0 5.4657 1.6265 
11 2 -1.6 3.6438 5.4657 4.28377 
12 3 3.7 1.8219 3.6438 3.68805 
13 1 3.1 0 0 5.31455 
14 1 3.1 1.8219 1.8219 7.97182 
15 2 -1.6 1.8219 0 6.34534 
16 2 -1.6 0 1.8219 6.94105 
17 2 -1.6 0 1.8219 9.59832 
18 2 -1.6 1.8219 0 9.0026 
19 4 2.5 0 3.6438 5.31455 
20 1 3.1 1.8219 5.4657 7.97182 
21 2 -1.6 1.8219 3.6438 6.34534 
22 2 -1.6 0 5.4657 6.94105 
23 2 -1.6 3.6438 5.4657 9.59832 
24 2 -1.6 1.8219 3.6438 9.0026 
25 1 3.1 3.6438 0 0 
26 1 3.1 5.4657 1.8219 2.65727 
27 2 -1.6 5.4657 0 1.03078 
28 2 -1.6 3.6438 1.8219 1.6265 
29 2 -1.6 7.2876 1.8219 4.28377 
30 2 -1.6 5.4657 0 3.68805 
31 5 2.5 3.6438 3.6438 0 
32 5 2.5 5.4657 5.4657 2.65727 
33 2 -1.6 5.4657 3.6438 1.03078 
34 2 -1.6 3.6438 5.4657 1.6265 
35 2 -1.6 7.2876 5.4657 4.28377 
36 2 -1.6 5.4657 3.6438 3.68805 
37 5 2.5 3.6438 0 5.31455 
38 1 3.1 5.4657 1.8219 7.97182 
39 2 -1.6 5.4657 0 6.34534 
40 2 -1.6 3.6438 1.8219 6.94105 
41 2 -1.6 3.6438 1.8219 9.59832 
42 2 -1.6 5.4657 0 9.0026 
43 1 3.1 3.6438 3.6438 5.31455 
44 7 0 5.4657 5.4657 7.97182 
45 2 -1.6 5.4657 3.6438 6.34534 
46 2 -1.6 3.6438 5.4657 6.94105 
47 3 3.7 7.2876 5.4657 9.59832 
48 2 -1.6 5.4657 3.6438 9.0026 
49 1 3.1 7.2876 0 0 
50 1 3.1 9.1095 1.8219 2.65727 
51 2 -1.6 9.1095 0 1.03078 
52 2 -1.6 7.2876 1.8219 1.6265 
53 2 -1.6 10.9314 1.8219 4.28377 
54 2 -1.6 9.1095 0 3.68805 
55 4 2.5 7.2876 3.6438 0 
56 1 3.1 9.1095 5.4657 2.65727 
57 2 -1.6 9.1095 3.6438 1.03078 
58 2 -1.6 7.2876 5.4657 1.6265 
59 2 -1.6 10.9314 5.4657 4.28377 
60 2 -1.6 9.1095 3.6438 3.68805 
61 1 3.1 7.2876 0 5.31455 
62 1 3.1 9.1095 1.8219 7.97182 
63 2 -1.6 9.1095 0 6.34534 
64 2 -1.6 7.2876 1.8219 6.94105 
65 2 -1.6 7.2876 1.8219 9.59832 
66 2 -1.6 9.1095 0 9.0026 
67 1 3.1 7.2876 3.6438 5.31455 
68 5 2.5 9.1095 5.4657 7.97182 
69 2 -1.6 9.1095 3.6438 6.34534 
70 2 -1.6 7.2876 5.4657 6.94105 
71 2 -1.6 10.9314 5.4657 9.59832 
72 2 -1.6 9.1095 3.6438 9.0026 
73 1 3.1 10.9314 0 0 
74 1 3.1 12.7533 1.8219 2.65727 
75 2 -1.6 12.7533 0 1.03078 
76 2 -1.6 10.9314 1.8219 1.6265 
77 2 -1.6 14.5752 1.8219 4.28377 
78 2 -1.6 12.7533 0 3.68805 
79 1 3.1 10.9314 3.6438 0 
80 1 3.1 12.7533 5.4657 2.65727 
81 2 -1.6 12.7533 3.6438 1.03078 
82 2 -1.6 10.9314 5.4657 1.6265 
83 2 -1.6 14.5752 5.4657 4.28377 
84 2 -1.6 12.7533 3.6438 3.68805 
85 1 3.1 10.9314 0 5.31455 
86 1 3.1 12.7533 1.8219 7.97182 
87 2 -1.6 12.7533 0 6.34534 
88 2 -1.6 10.9314 1.8219 6.94105 
89 2 -1.6 10.9314 1.8219 9.59832 
90 2 -1.6 12.7533 0 9.0026 
91 1 3.1 10.9314 3.6438 5.31455 
92 1 3.1 12.7533 5.4657 7.97182 
93 2 -1.6 12.7533 3.6438 6.34534 
94 2 -1.6 10.9314 5.4657 6.94105 
95 2 -1.6 14.5752 5.4657 9.59832 
96 2 -1.6 12.7533 3.6438 9.0026 
97 5 2.5 14.5752 0 0 
98 5 2.5 16.3971 1.8219 2.65727 
99 2 -1.6 16.3971 0 1.03078 
100 2 -1.6 14.5752 1.8219 1.6265 
101 2 -1.6 18.219 1.8219 4.28377 
102 3 3.7 16.3971 0 3.68805 
103 1 3.1 14.5752 3.6438 0 
104 1 3.1 16.3971 5.4657 2.65727 
105 2 -1.6 16.3971 3.6438 1.03078 
106 2 -1.6 14.5752 5.4657 1.6265 
107 2 -1.6 18.219 5.4657 4.28377 
108 2 -1.6 16.3971 3.6438 3.68805 
109 5 2.5 14.5752 0 5.31455 
110 1 3.1 16.3971 1.8219 7.97182 
111 2 -1.6 16.3971 0 6.34534 
112 2 -1.6 14.5752 1.8219 6.94105 
113 2 -1.6 14.5752 1.8219 9.59832 
114 2 -1.6 16.3971 0 9.0026 
115 1 3.1 14.5752 3.6438 5.31455 
116 1 3.1 16.3971 5.4657 7.97182 
117 2 -1.6 16.3971 3.6438 6.34534 
118 2 -1.6 14.5752 5.4657 6.94105 
119 2 -1.6 18.219 5.4657 9.59832 
120 2 -1.6 16.3971 3.6438 9.0026 
121 1 3.1 18.219 0 0 
122 1 3.1 20.0409 1.8219 2.65727 
123 2 -1.6 20.0409 0 1.03078 
124 2 -1.6 18.219 1.8219 1.6265 
125 2 -1.6 21.8628 1.8219 4.28377 
126 2 -1.6 20.0409 0 3.68805 
127 1 3.1 18.219 3.6438 0 
128 1 3.1 20.0409 5.4657 2.65727 
129 2 -1.6 20.0409 3.6438 1.03078 
130 2 -1.6 18.219 5.4657 1.6265 
131 2 -1.6 21.8628 5.4657 4.28377 
132 2 -1.6 20.0409 3.6438 3.68805 
133 7 0 18.219 0 5.31455 
134 1 3.1 20.0409 1.8219 7.97182 
135 2 -1.6 20.0409 0 6.34534 
136 2 -1.6 18.219 1.8219 6.94105 
137 2 -1.6 18.219 1.8219 9.59832 
138 2 -1.6 20.0409 0 9.0026 
139 1 3.1 18.219 3.6438 5.31455 
140 1 3.1 20.0409 5.4657 7.97182 
141 2 -1.6 20.0409 3.6438 6.34534 
142 2 -1.6 18.219 5.4657 6.94105 
143 2 -1.6 21.8628 5.4657 9.59832 
144 2 -1.6 20.0409 3.6438 9.0026 
145 1 3.1 21.8628 0 0 
146 1 3.1 23.6847 1.8219 2.65727 
147 2 -1.6 23.6847 0 1.03078 
148 2 -1.6 21.8628 1.8219 1.6265 
149 2 -1.6 25.5066 1.8219 4.28377 
150 2 -1.6 23.6847 0 3.68805 
151 1 3.1 21.8628 3.6438 0 
152 1 3.1 23.6847 5.4657 2.65727 
153 2 -1.6 23.6847 3.6438 1.03078 
154 2 -1.6 21.8628 5.4657 1.6265 
155 2 -1.6 25.5066 5.4657 4.28377 
156 2 -1.6 23.6847 3.6438 3.68805 
157 1 3.1 21.8628 0 5.31455 
158 1 3.1 23.6847 1.8219 7.97182 
159 2 -1.6 23.6847 0 6.34534 
160 2 -1.6 21.8628 1.8219 6.94105 
161 2 -1.6 21.8628 1.8219 9.59832 
162 2 -1.6 23.6847 0 9.0026 
163 1 3.1 21.8628 3.6438 5.31455 
164 1 3.1 23.6847 5.4657 7.97182 
165 2 -1.6 23.6847 3.6438 6.34534 
166 2 -1.6 21.8628 5.4657 6.94105 
167 2 -1.6 25.5066 5.4657 9.59832 
168 2 -1.6 23.6847 3.6438 9.0026 
169 7 0 25.5066 0 0 
170 1 3.1 27.3285 1.8219 2.65727 
171 2 -1.6 27.3285 0 1.03078 
172 2 -1.6 25.5066 1.8219 1.6265 
173 2 -1.6 29.1504 1.8219 4.28377 
174 2 -1.6 27.3285 0 3.68805 
175 7 0 25.5066 3.6438 0 
176 1 3.1 27.3285 5.4657 2.65727 
177 2 -1.6 27.3285 3.6438 1.03078 
178 2 -1.6 25.5066 5.4657 1.6265 
179 2 -1.6 29.1504 5.4657 4.28377 
180 2 -1.6 27.3285 3.6438 3.68805 
181 1 3.1 25.5066 0 5.31455 
182 1 3.1 27.3285 1.8219 7.97182 
183 2 -1.6 27.3285 0 6.34534 
184 2 -1.6 25.5066 1.8219 6.94105 
185 3 3.7 25.5066 1.8219 9.59832 
186 2 -1.6 27.3285 0 9.0026 
187 1 3.1 25.5066 3.6438 5.31455 
188 1 3.1 27.3285 5.4657 7.97182 
189 2 -1.6 27.3285 3.6438 6.34534 
190 2 -1.6 25.5066 5.4657 6.94105 
191 2 -1.6 29.1504 5.4657 9.59832 
192 2 -1.6 27.3285 3.6438 9.0026 
193 1 3.1 29.1504 0 0 
194 6 3.7 30.9723 1.8219 2.65727 
195 2 -1.6 30.9723 0 1.03078 
196 2 -1.6 29.1504 1.8219 1.6265 
197 2 -1.6 32.7942 1.8219 4.28377 
198 2 -1.6 30.9723 0 3.68805 
199 1 3.1 29.1504 3.6438 0 
200 1 3.1 30.9723 5.4657 2.65727 
201 2 -1.6 30.9723 3.6438 1.03078 
202 2 -1.6 29.1504 5.4657 1.6265 
203 2 -1.6 32.7942 5.4657 4.28377 
204 2 -1.6 30.9723 3.6438 3.68805 
205 6 3.7 29.1504 0 5.31455 
206 1 3.1 30.9723 1.8219 7.97182 
207 2 -1.6 30.9723 0 6.34534 
208 2 -1.6 29.1504 1.8219 6.94105 
209 2 -1.6 29.1504 1.8219 9.59832 
210 2 -1.6 30.9723 0 9.0026 
211 1 3.1 29.1504 3.6438 5.31455 
212 1 3.1 30.9723 5.4657 7.97182 
213 2 -1.6 30.9723 3.6438 6.34534 
214 2 -1.6 29.1504 5.4657 6.94105 
215 2 -1.6 32.7942 5.4657 9.59832 
216 2 -1.6 30.9723 3.6438 9.0026 
217 1 3.1 32.7942 0 0 
218 1 3.1 34.6161 1.8219 2.65727 
219 2 -1.6 34.6161 0 1.03078 
220 2 -1.6 32.7942 1.8219 1.6265 
221 2 -1.6 36.438 1.8219 4.28377 
222 2 -1.6 34.6161 0 3.68805 
223 1 3.1 32.7942 3.6438 0 
224 1 3.1 34.6161 5.4657 2.65727 
225 2 -1.6 34.6161 3.6438 1.03078 
226 2 -1.6 32.7942 5.4657 1.6265 
227 3 3.7 36.438 5.4657 4.28377 
228 2 -1.6 34.6161 3.6438 3.68805 
229 7 0 32.7942 0 5.31455 
230 1 3.1 34.6161 1.8219 7.97182 
231 2 -1.6 34.6161 0 6.34534 
232 2 -1.6 32.7942 1.8219 6.94105 
233 2 -1.6 32.7942 1.8219 9.59832 
234 2 -1.6 34.6161 0 9.0026 
235 1 3.1 32.7942 3.6438 5.31455 
236 7 0 34.6161 5.4657 7.97182 
237 3 3.7 34.6161 3.6438 6.34534 
238 2 -1.6 32.7942 5.4657 6.94105 
239 2 -1.6 36.438 5.4657 9.59832 
240 2 -1.6 34.6161 3.6438 9.0026 
241 1 3.1 36.438 0 0 
242 1 3.1 38.2599 1.8219 2.65727 
243 2 -1.6 38.2599 0 1.03078 
244 2 -1.6 36.438 1.8219 1.6265 
245 2 -1.6 40.0818 1.8219 4.28377 
246 2 -1.6 38.2599 0 3.68805 
247 1 3.1 36.438 3.6438 0 
248 7 0 38.2599 5.4657 2.65727 
249 2 -1.6 38.2599 3.6438 1.03078 
250 2 -1.6 36.438 5.4657 1.6265 
251 2 -1.6 40.0818 5.4657 4.28377 
252 2 -1.6 38.2599 3.6438 3.68805 
253 6 3.7 36.438 0 5.31455 
254 1 3.1 38.2599 1.8219 7.97182 
255 2 -1.6 38.2599 0 6.34534 
256 2 -1.6 36.438 1.8219 6.94105 
257 2 -1.6 36.438 1.8219 9.59832 
258 2 -1.6 38.2599 0 9.0026 
259 7 0 36.438 3.6438 5.31455 
260 1 3.1 38.2599 5.4657 7.97182 
261 2 -1.6 38.2599 3.6438 6.34534 
262 2 -1.6 36.438 5.4657 6.94105 
263 2 -1.6 40.0818 5.4657 9.59832 
264 2 -1.6 38.2599 3.6438 9.0026 
265 1 3.1 40.0818 0 0 
266 6 3.7 41.9037 1.8219 2.65727 
267 2 -1.6 41.9037 0 1.03078 
268 2 -1.6 40.0818 1.8219 1.6265 
269 2 -1.6 43.7256 1.8219 4.28377 
270 2 -1.6 41.9037 0 3.68805 
271 1 3.1 40.0818 3.6438 0 
272 1 3.1 41.9037 5.4657 2.65727 
273 2 -1.6 41.9037 3.6438 1.03078 
274 2 -1.6 40.0818 5.4657 1.6265 
275 2 -1.6 43.7256 5.4657 4.28377 
276 2 -1.6 41.9037 3.6438 3.68805 
277 1 3.1 40.0818 0 5.31455 
278 1 3.1 41.9037 1.8219 7.97182 
279 2 -1.6 41.9037 0 6.34534 
280 2 -1.6 40.0818 1.8219 6.94105 
281 2 -1.6 40.0818 1.8219 9.59832 
282 2 -1.6 41.9037 0 9.0026 
283 1 3.1 40.0818 3.6438 5.31455 
284 7 0 41.9037 5.4657 7.97182 
285 2 -1.6 41.9037 3.6438 6.34534 
286 2 -1.6 40.0818 5.4657 6.94105 
287 2 -1.6 43.7256 5.4657 9.59832 
288 2 -1.6 41.9037 3.6438 9.0026 
289 1 3.1 43.7256 0 0 
290 6 3.7 45.5475 1.8219 2.65727 
291 2 -1.6 45.5475 0 1.03078 
292 2 -1.6 43.7256 1.8219 1.6265 
293 2 -1.6 47.3694 1.8219 4.28377 
294 2 -1.6 45.5475 0 3.68805 
295 6 3.7 43.7256 3.6438 0 
296 1 3.1 45.5475 5.4657 2.65727 
297 2 -1.6 45.5475 3.6438 1.03078 
298 2 -1.6 43.7256 5.4657 1.6265 
299 2 -1.6 47.3694 5.4657 4.28377 
300 2 -1.6 45.5475 3.6438 3.68805 
301 1 3.1 43.7256 0 5.31455 
302 6 3.7 45.5475 1.8219 7.97182 
303 2 -1.6 45.5475 0 6.34534 
304 2 -1.6 43.7256 1.8219 6.94105 
305 2 -1.6 43.7256 1.8219 9.59832 
306 2 -1.6 45.5475 0 9.0026 
307 1 3.1 43.7256 3.6438 5.31455 
308 1 3.1 45.5475 5.4657 7.97182 
309 2 -1.6 45.5475 3.6438 6.34534 
310 2 -1.6 43.7256 5.4657 6.94105 
311 2 -1.6 47.3694 5.4657 9.59832 
312 2 -1.6 45.5475 3.6438 9.0026 
313 1 3.1 47.3694 0 0 
314 1 3.1 49.1913 1.8219 2.65727 
315 2 -1.6 49.1913 0 1.03078 
316 2 -1.6 47.3694 1.8219 1.6265 
317 2 -1.6 51.0132 1.8219 4.28377 
318 2 -1.6 49.1913 0 3.68805 
319 6 3.7 47.3694 3.6438 0 
320 1 3.1 49.1913 5.4657 2.65727 
321 2 -1.6 49.1913 3.6438 1.03078 
322 2 -1.6 47.3694 5.4657 1.6265 
323 2 -1.6 51.0132 5.4657 4.28377 
324 2 -1.6 49.1913 3.6438 3.68805 
325 7 0 47.3694 0 5.31455 
326 7 0 49.1913 1.8219 7.97182 
327 3 3.7 49.1913 0 6.34534 
328 2 -1.6 47.3694 1.8219 6.94105 
329 2 -1.6 47.3694 1.8219 9.59832 
330 2 -1.6 49.1913 0 9.0026 
331 1 3.1 47.3694 3.6438 5.31455 
332 1 3.1 49.1913 5.4657 7.97182 
333 2 -1.6 49.1913 3.6438 6.34534 
334 2 -1.6 47.3694 5.4657 6.94105 
335 2 -1.6 51.0132 5.4657 9.59832 
336 2 -1.6 49.1913 3.6438 9.0026 
337 1 3.1 51.0132 0 0 
338 1 3.1 52.8351 1.8219 2.65727 
339 2 -1.6 52.8351 0 1.03078 
340 2 -1.6 51.0132 1.8219 1.6265 
341 2 -1.6 54.657 1.8219 4.28377 
342 2 -1.6 52.8351 0 3.68805 
343 1 3.1 51.0132 3.6438 0 
344 1 3.1 52.8351 5.4657 2.65727 
345 2 -1.6 52.8351 3.6438 1.03078 
346 2 -1.6 51.0132 5.4657 1.6265 
347 2 -1.6 54.657 5.4657 4.28377 
348 2 -1.6 52.8351 3.6438 3.68805 
349 7 0 51.0132 0 5.31455 
350 1 3.1 52.8351 1.8219 7.97182 
351 2 -1.6 52.8351 0 6.34534 
352 2 -1.6 51.0132 1.8219 6.94105 
353 2 -1.6 51.0132 1.8219 9.59832 
354 2 -1.6 52.8351 0 9.0026 
355 1 3.1 51.0132 3.6438 5.31455 
356 1 3.1 52.8351 5.4657 7.97182 
357 2 -1.6 52.8351 3.6438 6.34534 
358 2 -1.6 51.0132 5.4657 6.94105 
359 2 -1.6 54.657 5.4657 9.59832 
360 2 -1.6 52.8351 3.6438 9.0026 
361 1 3.1 54.657 0 0 
362 1 3.1 56.4789 1.8219 2.65727 
363 2 -1.6 56.4789 0 1.03078 
364 2 -1.6 54.657 1.8219 1.6265 
365 2 -1.6 58.3008 1.8219 4.28377 
366 2 -1.6 56.4789 0 3.68805 
367 1 3.1 54.657 3.6438 0 
368 7 0 56.4789 5.4657 2.65727 
369 2 -1.6 56.4789 3.6438 1.03078 
370 2 -1.6 54.657 5.4657 1.6265 
371 2 -1.6 58.3008 5.4657 4.28377 
372 3 3.7 56.4789 3.6438 3.68805 
373 1 3.1 54.657 0 5.31455 
374 1 3.1 56.4789 1.8219 7.97182 
375 2 -1.6 56.4789 0 6.34534 
376 2 -1.6 54.657 1.8219 6.94105 
377 2 -1.6 54.657 1.8219 9.59832 
378 2 -1.6 56.4789 0 9.0026 
379 1 3.1 54.657 3.6438 5.31455 
380 1 3.1 56.4789 5.4657 7.97182 
381 2 -1.6 56.4789 3.6438 6.34534 
382 2 -1.6 54.657 5.4657 6.94105 
383 2 -1.6 58.3008 5.4657 9.59832 
384 2 -1.6 56.4789 3.6438 9.0026 
385 7 0 58.3008 0 0 
386 6 3.7 60.1227 1.8219 2.65727 
387 2 -1.6 60.1227 0 1.03078 
388 2 -1.6 58.3008 1.8219 1.6265 
389 2 -1.6 61.9446 1.8219 4.28377 
390 2 -1.6 60.1227 0 3.68805 
391 7 0 58.3008 3.6438 0 
392 1 3.1 60.1227 5.4657 2.65727 
393 2 -1.6 60.1227 3.6438 1.03078 
394 2 -1.6 58.3008 5.4657 1.6265 
395 2 -1.6 61.9446 5.4657 4.28377 
396 2 -1.6 60.1227 3.6438 3.68805 
397 1 3.1 58.3008 0 5.31455 
398 1 3.1 60.1227 1.8219 7.97182 
399 2 -1.6 60.1227 0 6.34534 
400 2 -1.6 58.3008 1.8219 6.94105 
401 3 3.7 58.3008 1.8219 9.59832 
402 2 -1.6 60.1227 0 9.0026 
403 7 0 58.3008 3.6438 5.31455 
404 1 3.1 60.1227 5.4657 7.97182 
405 2 -1.6 60.1227 3.6438 6.34534 
406 2 -1.6 58.3008 5.4657 6.94105 
407 2 -1.6 61.9446 5.4657 9.59832 
408 2 -1.6 60.1227 3.6438 9.0026 
409 6 3.7 61.9446 0 0 
410 7 0 63.7665 1.8219 2.65727 
411 2 -1.6 63.7665 0 1.03078 
412 2 -1.6 61.9446 1.8219 1.6265 
413 2 -1.6 65.5884 1.8219 4.28377 
414 2 -1.6 63.7665 0 3.68805 
415 6 3.7 61.9446 3.6438 0 
416 1 3.1 63.7665 5.4657 2.65727 
417 2 -1.6 63.7665 3.6438 1.03078 
418 2 -1.6 61.9446 5.4657 1.6265 
419 2 -1.6 65.5884 5.4657 4.28377 
420 2 -1.6 63.7665 3.6438 3.68805 
421 6 3.7 61.9446 0 5.31455 
422 1 3.1 63.7665 1.8219 7.97182 
423 2 -1.6 63.7665 0 6.34534 
424 2 -1.6 61.9446 1.8219 6.94105 
425 2 -1.6 61.9446 1.8219 9.59832 
426 2 -1.6 63.7665 0 9.0026 
427 6 3.7 61.9446 3.6438 5.31455 
428 1 3.1 63.7665 5.4657 7.97182 
429 2 -1.6 63.7665 3.6438 6.34534 
430 2 -1.6 61.9446 5.4657 6.94105 
431 2 -1.6 65.5884 5.4657 9.59832 
432 2 -1.6 63.7665 3.6438 9.0026 
433 7 0 65.5884 0 0 
434 1 3.1 67.4103 1.8219 2.65727 
435 2 -1.6 67.4103 0 1.03078 
436 3 3.7 65.5884 1.8219 1.6265 
437 2 -1.6 69.2322 1.8219 4.28377 
438 2 -1.6 67.4103 0 3.68805 
439 1 3.1 65.5884 3.6438 0 
440 1 3.1 67.4103 5.4657 2.65727 
441 2 -1.6 67.4103 3.6438 1.03078 
442 2 -1.6 65.5884 5.4657 1.6265 
443 2 -1.6 69.2322 5.4657 4.28377 
444 2 -1.6 67.4103 3.6438 3.68805 
445 1 3.1 65.5884 0 5.31455 
446 1 3.1 67.4103 1.8219 7.97182 
447 2 -1.6 67.4103 0 6.34534 
448 2 -1.6 65.5884 1.8219 6.94105 
449 2 -1.6 65.5884 1.8219 9.59832 
450 2 -1.6 67.4103 0 9.0026 
451 1 3.1 65.5884 3.6438 5.31455 
452 1 3.1 67.4103 5.4657 7.97182 
453 2 -1.6 67.4103 3.6438 6.34534 
454 2 -1.6 65.5884 5.4657 6.94105 
455 2 -1.6 69.2322 5.4657 9.59832 
456 2 -1.6 67.4103 3.6438 9.0026 
457 1 3.1 69.2322 0 0 
458 1 3.1 71.0541 1.8219 2.65727 
459 2 -1.6 71.0541 0 1.03078 
460 2 -1.6 69.2322 1.8219 1.6265 
461 2 -1.6 72.876 1.8219 4.28377 
462 2 -1.6 71.0541 0 3.68805 
463 1 3.1 69.2322 3.6438 0 
464 1 3.1 71.0541 5.4657 2.65727 
465 2 -1.6 71.0541 3.6438 1.03078 
466 2 -1.6 69.2322 5.4657 1.6265 
467 2 -1.6 72.876 5.4657 4.28377 
468 2 -1.6 71.0541 3.6438 3.68805 
469 1 3.1 69.2322 0 5.31455 
470 1 3.1 71.0541 1.8219 7.97182 
471 2 -1.6 71.0541 0 6.34534 
472 2 -1.6 69.2322 1.8219 6.94105 
473 2 -1.6 69.2322 1.8219 9.59832 
474 2 -1.6 71.0541 0 9.0026 
475 1 3.1 69.2322 3.6438 5.31455 
476 1 3.1 71.0541 5.4657 7.97182 
477 2 -1.6 71.0541 3.6438 6.34534 
478 2 -1.6 69.2322 5.4657 6.94105 
479 2 -1.6 72.876 5.4657 9.59832 
480 2 -1.6 71.0541 3.6438 9.0026 
481 1 3.1 72.876 0 0 
482 7 0 74.6979 1.8219 2.65727 
483 2 -1.6 74.6979 0 1.03078 
484 2 -1.6 72.876 1.8219 1.6265 
485 2 -1.6 76.5198 1.8219 4.28377 
486 3 3.7 74.6979 0 3.68805 
487 1 3.1 72.876 3.6438 0 
488 1 3.1 74.6979 5.4657 2.65727 
489 2 -1.6 74.6979 3.6438 1.03078 
490 2 -1.6 72.876 5.4657 1.6265 
491 2 -1.6 76.5198 5.4657 4.28377 
492 2 -1.6 74.6979 3.6438 3.68805 
493 7 0 72.876 0 5.31455 
494 1 3.1 74.6979 1.8219 7.97182 
495 2 -1.6 74.6979 0 6.34534 
496 2 -1.6 72.876 1.8219 6.94105 
497 2 -1.6 72.876 1.8219 9.59832 
498 2 -1.6 74.6979 0 9.0026 
499 1 3.1 72.876 3.6438 5.31455 
500 1 3.1 74.6979 5.4657 7.97182 
501 2 -1.6 74.6979 3.6438 6.34534 
502 2 -1.6 72.876 5.4657 6.94105 
503 2 -1.6 76.5198 5.4657 9.59832 
504 2 -1.6 74.6979 3.6438 9.0026 
505 1 3.1 76.5198 0 0 
506 1 3.1 78.3417 1.8219 2.65727 
507 2 -1.6 78.3417 0 1.03078 
508 2 -1.6 76.5198 1.8219 1.6265 
509 2 -1.6 80.1636 1.8219 4.28377 
510 2 -1.6 78.3417 0 3.68805 
511 1 3.1 76.5198 3.6438 0 
512 1 3.1 78.3417 5.4657 2.65727 
513 2 -1.6 78.3417 3.6438 1.03078 
514 2 -1.6 76.5198 5.4657 1.6265 
515 2 -1.6 80.1636 5.4657 4.28377 
516 2 -1.6 78.3417 3.6438 3.68805 
517 7 0 76.5198 0 5.31455 
518 1 3.1 78.3417 1.8219 7.97182 
519 2 -1.6 78.3417 0 6.34534 
520 2 -1.6 76.5198 1.8219 6.94105 
521 2 -1.6 76.5198 1.8219 9.59832 
522 2 -1.6 78.3417 0 9.0026 
523 1 3.1 76.5198 3.6438 5.31455 
524 1 3.1 78.3417 5.4657 7.97182 
525 2 -1.6 78.3417 3.6438 6.34534 
526 2 -1.6 76.5198 5.4657 6.94105 
527 2 -1.6 80.1636 5.4657 9.59832 
528 2 -1.6 78.3417 3.6438 9.0026 
529 1 3.1 80.1636 0 0 
530 1 3.1 81.9855 1.8219 2.65727 
531 2 -1.6 81.9855 0 1.03078 
532 2 -1.6 80.1636 1.8219 1.6265 
533 2 -1.6 83.8074 1.8219 4.28377 
534 2 -1.6 81.9855 0 3.68805 
535 1 3.1 80.1636 3.6438 0 
536 1 3.1 81.9855 5.4657 2.65727 
537 2 -1.6 81.9855 3.6438 1.03078 
538 2 -1.6 80.1636 5.4657 1.6265 
539 2 -1.6 83.8074 5.4657 4.28377 
540 2 -1.6 81.9855 3.6438 3.68805 
541 1 3.1 80.1636 0 5.31455 
542 7 0 81.9855 1.8219 7.97182 
543 2 -1.6 81.9855 0 6.34534 
544 2 -1.6 80.1636 1.8219 6.94105 
545 2 -1.6 80.1636 1.8219 9.59832 
546 3 3.7 81.9855 0 9.0026 
547 1 3.1 80.1636 3.6438 5.31455 
548 1 3.1 81.9855 5.4657 7.97182 
549 2 -1.6 81.9855 3.6438 6.34534 
550 2 -1.6 80.1636 5.4657 6.94105 
551 2 -1.6 83.8074 5.4657 9.59832 
552 2 -1.6 81.9855 3.6438 9.0026 
553 5 2.5 83.8074 0 0 
554 5 2.5 85.6293 1.8219 2.65727 
555 2 -1.6 85.6293 0 1.03078 
556 2 -1.6 83.8074 1.8219 1.6265 
557 2 -1.6 87.4512 1.8219 4.28377 
558 2 -1.6 85.6293 0 3.68805 
559 5 2.5 83.8074 3.6438 0 
560 1 3.1 85.6293 5.4657 2.65727 
561 2 -1.6 85.6293 3.6438 1.03078 
562 2 -1.6 83.8074 5.4657 1.6265 
563 2 -1.6 87.4512 5.4657 4.28377 
564 2 -1.6 85.6293 3.6438 3.68805 
565 1 3.1 83.8074 0 5.31455 
566 5 2.5 85.6293 1.8219 7.97182 
567 2 -1.6 85.6293 0 6.34534 
568 2 -1.6 83.8074 1.8219 6.94105 
569 2 -1.6 83.8074 1.8219 9.59832 
570 2 -1.6 85.6293 0 9.0026 
571 1 3.1 83.8074 3.6438 5.31455 
572 5 2.5 85.6293 5.4657 7.97182 
573 2 -1.6 85.6293 3.6438 6.34534 
574 2 -1.6 83.8074 5.4657 6.94105 
575 2 -1.6 87.4512 5.4657 9.59832 
576 2 -1.6 85.6293 3.6438 9.0026 
577 1 3.1 87.4512 0 0 
578 1 3.1 89.2731 1.8219 2.65727 
579 2 -1.6 89.2731 0 1.03078 
580 2 -1.6 87.4512 1.8219 1.6265 
581 2 -1.6 91.095 1.8219 4.28377 
582 2 -1.6 89.2731 0 3.68805 
583 5 2.5 87.4512 3.6438 0 
584 5 2.5 89.2731 5.4657 2.65727 
585 2 -1.6 89.2731 3.6438 1.03078 
586 2 -1.6 87.4512 5.4657 1.6265 
587 2 -1.6 91.095 5.4657 4.28377 
588 2 -1.6 89.2731 3.6438 3.68805 
589 1 3.1 87.4512 0 5.31455 
590 5 2.5 89.2731 1.8219 7.97182 
591 2 -1.6 89.2731 0 6.34534 
592 2 -1.6 87.4512 1.8219 6.94105 
593 2 -1.6 87.4512 1.8219 9.59832 
594 2 -1.6 89.2731 0 9.0026 
595 1 3.1 87.4512 3.6438 5.31455 
596 5 2.5 89.2731 5.4657 7.97182 
597 3 3.7 89.2731 3.6438 6.34534 
598 2 -1.6 87.4512 5.4657 6.94105 
599 2 -1.6 91.095 5.4657 9.59832 
600 2 -1.6 89.2731 3.6438 9.0026 
601 1 3.1 91.095 0 0 
602 4 2.5 92.9169 1.8219 2.65727 
603 2 -1.6 92.9169 0 1.03078 
604 2 -1.6 91.095 1.8219 1.6265 
605 2 -1.6 94.7388 1.8219 4.28377 
606 2 -1.6 92.9169 0 3.68805 
607 5 2.5 91.095 3.6438 0 
608 4 2.5 92.9169 5.4657 2.65727 
609 2 -1.6 92.9169 3.6438 1.03078 
610 2 -1.6 91.095 5.4657 1.6265 
611 2 -1.6 94.7388 5.4657 4.28377 
612 3 3.7 92.9169 3.6438 3.68805 
613 1 3.1 91.095 0 5.31455 
614 4 2.5 92.9169 1.8219 7.97182 
615 2 -1.6 92.9169 0 6.34534 
616 2 -1.6 91.095 1.8219 6.94105 
617 2 -1.6 91.095 1.8219 9.59832 
618 3 3.7 92.9169 0 9.0026 
619 7 0 91.095 3.6438 5.31455 
620 4 2.5 92.9169 5.4657 7.97182 
621 2 -1.6 92.9169 3.6438 6.34534 
622 2 -1.6 91.095 5.4657 6.94105 
623 2 -1.6 94.7388 5.4657 9.59832 
624 2 -1.6 92.9169 3.6438 9.0026 
625 5 2.5 94.7388 0 0 
626 1 3.1 96.5607 1.8219 2.65727 
627 2 -1.6 96.5607 0 1.03078 
628 2 -1.6 94.7388 1.8219 1.6265 
629 2 -1.6 98.3826 1.8219 4.28377 
630 2 -1.6 96.5607 0 3.68805 
631 5 2.5 94.7388 3.6438 0 
632 5 2.5 96.5607 5.4657 2.65727 
633 2 -1.6 96.5607 3.6438 1.03078 
634 2 -1.6 94.7388 5.4657 1.6265 
635 2 -1.6 98.3826 5.4657 4.28377 
636 2 -1.6 96.5607 3.6438 3.68805 
637 7 0 94.7388 0 5.31455 
638 4 2.5 96.5607 1.8219 7.97182 
639 2 -1.6 96.5607 0 6.34534 
640 2 -1.6 94.7388 1.8219 6.94105 
641 2 -1.6 94.7388 1.8219 9.59832 
642 2 -1.6 96.5607 0 9.0026 
643 4 2.5 94.7388 3.6438 5.31455 
644 4 2.5 96.5607 5.4657 7.97182 
645 2 -1.6 96.5607 3.6438 6.34534 
646 2 -1.6 94.7388 5.4657 6.94105 
647 2 -1.6 98.3826 5.4657 9.59832 
648 2 -1.6 96.5607 3.6438 9.0026 
649 4 2.5 98.3826 0 0 
650 1 3.1 100.204 1.8219 2.65727 
651 3 3.7 100.204 0 1.03078 
652 2 -1.6 98.3826 1.8219 1.6265 
653 2 -1.6 102.026 1.8219 4.28377 
654 2 -1.6 100.204 0 3.68805 
655 4 2.5 98.3826 3.6438 0 
656 4 2.5 100.204 5.4657 2.65727 
657 2 -1.6 100.204 3.6438 1.03078 
658 2 -1.6 98.3826 5.4657 1.6265 
659 2 -1.6 102.026 5.4657 4.28377 
660 2 -1.6 100.204 3.6438 3.68805 
661 1 3.1 98.3826 0 5.31455 
662 4 2.5 100.204 1.8219 7.97182 
663 2 -1.6 100.204 0 6.34534 
664 2 -1.6 98.3826 1.8219 6.94105 
665 2 -1.6 98.3826 1.8219 9.59832 
666 2 -1.6 100.204 0 9.0026 
667 5 2.5 98.3826 3.6438 5.31455 
668 5 2.5 100.204 5.4657 7.97182 
669 2 -1.6 100.204 3.6438 6.34534 
670 2 -1.6 98.3826 5.4657 6.94105 
671 2 -1.6 102.026 5.4657 9.59832 
672 3 3.7 100.204 3.6438 9.0026 
673 7 0 102.026 0 0 
674 1 3.1 103.848 1.8219 2.65727 
675 2 -1.6 103.848 0 1.03078 
676 2 -1.6 102.026 1.8219 1.6265 
677 2 -1.6 105.67 1.8219 4.28377 
678 2 -1.6 103.848 0 3.68805 
679 4 2.5 102.026 3.6438 0 
680 7 0 103.848 5.4657 2.65727 
681 2 -1.6 103.848 3.6438 1.03078 
682 2 -1.6 102.026 5.4657 1.6265 
683 2 -1.6 105.67 5.4657 4.28377 
684 2 -1.6 103.848 3.6438 3.68805 
685 1 3.1 102.026 0 5.31455 
686 5 2.5 103.848 1.8219 7.97182 
687 2 -1.6 103.848 0 6.34534 
688 2 -1.6 102.026 1.8219 6.94105 
689 2 -1.6 102.026 1.8219 9.59832 
690 2 -1.6 103.848 0 9.0026 
691 4 2.5 102.026 3.6438 5.31455 
692 4 2.5 103.848 5.4657 7.97182 
693 2 -1.6 103.848 3.6438 6.34534 
694 2 -1.6 102.026 5.4657 6.94105 
695 2 -1.6 105.67 5.4657 9.59832 
696 2 -1.6 103.848 3.6438 9.0026 
697 1 3.1 105.67 0 0 
698 1 3.1 107.492 1.8219 2.65727 
699 2 -1.6 107.492 0 1.03078 
700 2 -1.6 105.67 1.8219 1.6265 
701 2 -1.6 109.314 1.8219 4.28377 
702 2 -1.6 107.492 0 3.68805 
703 4 2.5 105.67 3.6438 0 
704 5 2.5 107.492 5.4657 2.65727 
705 2 -1.6 107.492 3.6438 1.03078 
706 3 3.7 105.67 5.4657 1.6265 
707 2 -1.6 109.314 5.4657 4.28377 
708 2 -1.6 107.492 3.6438 3.68805 
709 6 3.7 105.67 0 5.31455 
710 1 3.1 107.492 1.8219 7.97182 
711 2 -1.6 107.492 0 6.34534 
712 2 -1.6 105.67 1.8219 6.94105 
713 2 -1.6 105.67 1.8219 9.59832 
714 2 -1.6 107.492 0 9.0026 
715 4 2.5 105.67 3.6438 5.31455 
716 1 3.1 107.492 5.4657 7.97182 
717 2 -1.6 107.492 3.6438 6.34534 
718 2 -1.6 105.67 5.4657 6.94105 
719 2 -1.6 109.314 5.4657 9.59832 
720 2 -1.6 107.492 3.6438 9.0026 
721 1 3.1 109.314 0 0 
722 1 3.1 111.136 1.8219 2.65727 
723 2 -1.6 111.136 0 1.03078 
724 2 -1.6 109.314 1.8219 1.6265 
725 2 -1.6 112.958 1.8219 4.28377 
726 2 -1.6 111.136 0 3.68805 
727 5 2.5 109.314 3.6438 0 
728 1 3.1 111.136 5.4657 2.65727 
729 2 -1.6 111.136 3.6438 1.03078 
730 2 -1.6 109.314 5.4657 1.6265 
731 2 -1.6 112.958 5.4657 4.28377 
732 2 -1.6 111.136 3.6438 3.68805 
733 1 3.1 109.314 0 5.31455 
734 5 2.5 111.136 1.8219 7.97182 
735 2 -1.6 111.136 0 6.34534 
736 2 -1.6 109.314 1.8219 6.94105 
737 2 -1.6 109.314 1.8219 9.59832 
738 2 -1.6 111.136 0 9.0026 
739 5 2.5 109.314 3.6438 5.31455 
740 1 3.1 111.136 5.4657 7.97182 
741 2 -1.6 111.136 3.6438 6.34534 
742 2 -1.6 109.314 5.4657 6.94105 
743 2 -1.6 112.958 5.4657 9.59832 
744 2 -1.6 111.136 3.6438 9.0026 
745 1 3.1 112.958 0 0 
746 7 0 114.78 1.8219 2.65727 
747 2 -1.6 114.78 0 1.03078 
748 2 -1.6 112.958 1.8219 1.6265 
749 2 -1.6 116.602 1.8219 4.28377 
750 2 -1.6 114.78 0 3.68805 
751 1 3.1 112.958 3.6438 0 
752 1 3.1 114.78 5.4657 2.65727 
753 2 -1.6 114.78 3.6438 1.03078 
754 2 -1.6 112.958 5.4657 1.6265 
755 2 -1.6 116.602 5.4657 4.28377 
756 2 -1.6 114.78 3.6438 3.68805 
757 5 2.5 112.958 0 5.31455 
758 1 3.1 114.78 1.8219 7.97182 
759 2 -1.6 114.78 0 6.34534 
760 3 3.7 112.958 1.8219 6.94105 
761 2 -1.6 112.958 1.8219 9.59832 
762 2 -1.6 114.78 0 9.0026 
763 1 3.1 112.958 3.6438 5.31455 
764 7 0 114.78 5.4657 7.97182 
765 2 -1.6 114.78 3.6438 6.34534 
766 2 -1.6 112.958 5.4657 6.94105 
767 2 -1.6 116.602 5.4657 9.59832 
768 2 -1.6 114.78 3.6438 9.0026 
769 1 3.1 116.602 0 0 
770 7 0 118.424 1.8219 2.65727 
771 2 -1.6 118.424 0 1.03078 
772 3 3.7 116.602 1.8219 1.6265 
773 2 -1.6 120.245 1.8219 4.28377 
774 2 -1.6 118.424 0 3.68805 
775 1 3.1 116.602 3.6438 0 
776 7 0 118.424 5.4657 2.65727 
777 2 -1.6 118.424 3.6438 1.03078 
778 2 -1.6 116.602 5.4657 1.6265 
779 2 -1.6 120.245 5.4657 4.28377 
780 2 -1.6 118.424 3.6438 3.68805 
781 1 3.1 116.602 0 5.31455 
782 6 3.7 118.424 1.8219 7.97182 
783 2 -1.6 118.424 0 6.34534 
784 2 -1.6 116.602 1.8219 6.94105 
785 2 -1.6 116.602 1.8219 9.59832 
786 2 -1.6 118.424 0 9.0026 
787 1 3.1 116.602 3.6438 5.31455 
788 6 3.7 118.424 5.4657 7.97182 
789 2 -1.6 118.424 3.6438 6.34534 
790 2 -1.6 116.602 5.4657 6.94105 
791 2 -1.6 120.245 5.4657 9.59832 
792 2 -1.6 118.424 3.6438 9.0026 
793 1 3.1 120.245 0 0 
794 1 3.1 122.067 1.8219 2.65727 
795 2 -1.6 122.067 0 1.03078 
796 2 -1.6 120.245 1.8219 1.6265 
797 2 -1.6 123.889 1.8219 4.28377 
798 3 3.7 122.067 0 3.68805 
799 1 3.1 120.245 3.6438 0 
800 1 3.1 122.067 5.4657 2.65727 
801 2 -1.6 122.067 3.6438 1.03078 
802 2 -1.6 120.245 5.4657 1.6265 
803 2 -1.6 123.889 5.4657 4.28377 
804 2 -1.6 122.067 3.6438 3.68805 
805 1 3.1 120.245 0 5.31455 
806 6 3.7 122.067 1.8219 7.97182 
807 2 -1.6 122.067 0 6.34534 
808 2 -1.6 120.245 1.8219 6.94105 
809 2 -1.6 120.245 1.8219 9.59832 
810 2 -1.6 122.067 0 9.0026 
811 1 3.1 120.245 3.6438 5.31455 
812 1 3.1 122.067 5.4657 7.97182 
813 2 -1.6 122.067 3.6438 6.34534 
814 2 -1.6 120.245 5.4657 6.94105 
815 2 -1.6 123.889 5.4657 9.59832 
816 2 -1.6 122.067 3.6438 9.0026 
817 7 0 123.889 0 0 
818 1 3.1 125.711 1.8219 2.65727 
819 2 -1.6 125.711 0 1.03078 
820 2 -1.6 123.889 1.8219 1.6265 
821 2 -1.6 127.533 1.8219 4.28377 
822 2 -1.6 125.711 0 3.68805 
823 6 3.7 123.889 3.6438 0 
824 6 3.7 125.711 5.4657 2.65727 
825 2 -1.6 125.711 3.6438 1.03078 
826 2 -1.6 123.889 5.4657 1.6265 
827 2 -1.6 127.533 5.4657 4.28377 
828 2 -1.6 125.711 3.6438 3.68805 
829 7 0 123.889 0 5.31455 
830 1 3.1 125.711 1.8219 7.97182 
831 2 -1.6 125.711 0 6.34534 
832 2 -1.6 123.889 1.8219 6.94105 
833 2 -1.6 123.889 1.8219 9.59832 
834 2 -1.6 125.711 0 9.0026 
835 6 3.7 123.889 3.6438 5.31455 
836 6 3.7 125.711 5.4657 7.97182 
837 2 -1.6 125.711 3.6438 6.34534 
838 2 -1.6 123.889 5.4657 6.94105 
839 2 -1.6 127.533 5.4657 9.59832 
840 2 -1.6 125.711 3.6438 9.0026 
841 1 3.1 127.533 0 0 
842 6 3.7 129.355 1.8219 2.65727 
843 2 -1.6 129.355 0 1.03078 
844 2 -1.6 127.533 1.8219 1.6265 
845 2 -1.6 131.177 1.8219 4.28377 
846 2 -1.6 129.355 0 3.68805 
847 6 3.7 127.533 3.6438 0 
848 6 3.7 129.355 5.4657 2.65727 
849 2 -1.6 129.355 3.6438 1.03078 
850 2 -1.6 127.533 5.4657 1.6265 
851 2 -1.6 131.177 5.4657 4.28377 
852 2 -1.6 129.355 3.6438 3.68805 
853 1 3.1 127.533 0 5.31455 
854 6 3.7 129.355 1.8219 7.97182 
855 2 -1.6 129.355 0 6.34534 
856 2 -1.6 127.533 1.8219 6.94105 
857 2 -1.6 127.533 1.8219 9.59832 
858 2 -1.6 129.355 0 9.0026 
859 1 3.1 127.533 3.6438 5.31455 
860 1 3.1 129.355 5.4657 7.97182 
861 2 -1.6 129.355 3.6438 6.34534 
862 2 -1.6 127.533 5.4657 6.94105 
863 2 -1.6 131.177 5.4657 9.59832 
864 2 -1.6 129.355 3.6438 9.0026 
865 7 0 131.177 0 0 
866 1 3.1 132.999 1.8219 2.65727 
867 2 -1.6 132.999 0 1.03078 
868 2 -1.6 131.177 1.8219 1.6265 
869 2 -1.6 134.821 1.8219 4.28377 
870 2 -1.6 132.999 0 3.68805 
871 1 3.1 131.177 3.6438 0 
872 1 3.1 132.999 5.4657 2.65727 
873 2 -1.6 132.999 3.6438 1.03078 
874 2 -1.6 131.177 5.4657 1.6265 
875 2 -1.6 134.821 5.4657 4.28377 
876 2 -1.6 132.999 3.6438 3.68805 
877 1 3.1 131.177 0 5.31455 
878 1 3.1 132.999 1.8219 7.97182 
879 2 -1.6 132.999 0 6.34534 
880 2 -1.6 131.177 1.8219 6.94105 
881 2 -1.6 131.177 1.8219 9.59832 
882 2 -1.6 132.999 0 9.0026 
883 6 3.7 131.177 3.6438 5.31455 
884 6 3.7 132.999 5.4657 7.97182 
885 2 -1.6 132.999 3.6438 6.34534 
886 2 -1.6 131.177 5.4657 6.94105 
887 2 -1.6 134.821 5.4657 9.59832 
888 2 -1.6 132.999 3.6438 9.0026 
889 1 3.1 134.821 0 0 
890 1 3.1 136.643 1.8219 2.65727 
891 2 -1.6 136.643 0 1.03078 
892 2 -1.6 134.821 1.8219 1.6265 
893 2 -1.6 138.464 1.8219 4.28377 
894 2 -1.6 136.643 0 3.68805 
895 1 3.1 134.821 3.6438 0 
896 1 3.1 136.643 5.4657 2.65727 
897 2 -1.6 136.643 3.6438 1.03078 
898 2 -1.6 134.821 5.4657 1.6265 
899 2 -1.6 138.464 5.4657 4.28377 
900 2 -1.6 136.643 3.6438 3.68805 
901 1 3.1 134.821 0 5.31455 
902 1 3.1 136.643 1.8219 7.97182 
903 2 -1.6 136.643 0 6.34534 
904 2 -1.6 134.821 1.8219 6.94105 
905 2 -1.6 134.821 1.8219 9.59832 
906 2 -1.6 136.643 0 9.0026 
907 7 0 134.821 3.6438 5.31455 
908 1 3.1 136.643 5.4657 7.97182 
909 3 3.7 136.643 3.6438 6.34534 
910 2 -1.6 134.821 5.4657 6.94105 