Create LAMMPS data for SED method by using LT_Codes

480 atoms

1 atom types

        0.0000000000       121.5001398540 xlo xhi
        0.0000000000         8.1000093236 ylo yhi
        0.0000000000         8.1000093236 zlo zhi

Masses

1        26.9815386000 

Atoms

1 1         4.0500046618         4.0500046618         0.0000000000  # Al
2 1         2.0250023309         2.0250023309         0.0000000000  # Al
3 1         2.0250023309         4.0500046618         2.0250023309  # Al
4 1         4.0500046618         2.0250023309         2.0250023309  # Al
5 1         4.0500046618         4.0500046618         4.0500046618  # Al
6 1         2.0250023309         2.0250023309         4.0500046618  # Al
7 1         2.0250023309         4.0500046618         6.0750069927  # Al
8 1         4.0500046618         2.0250023309         6.0750069927  # Al
9 1         4.0500046618         8.1000093236         0.0000000000  # Al
10 1         2.0250023309         6.0750069927         0.0000000000  # Al
11 1         2.0250023309         8.1000093236         2.0250023309  # Al
12 1         4.0500046618         6.0750069927         2.0250023309  # Al
13 1         4.0500046618         8.1000093236         4.0500046618  # Al
14 1         2.0250023309         6.0750069927         4.0500046618  # Al
15 1         2.0250023309         8.1000093236         6.0750069927  # Al
16 1         4.0500046618         6.0750069927         6.0750069927  # Al
17 1         8.1000093236         4.0500046618         0.0000000000  # Al
18 1         6.0750069927         2.0250023309         0.0000000000  # Al
19 1         6.0750069927         4.0500046618         2.0250023309  # Al
20 1         8.1000093236         2.0250023309         2.0250023309  # Al
21 1         8.1000093236         4.0500046618         4.0500046618  # Al
22 1         6.0750069927         2.0250023309         4.0500046618  # Al
23 1         6.0750069927         4.0500046618         6.0750069927  # Al
24 1         8.1000093236         2.0250023309         6.0750069927  # Al
25 1         8.1000093236         8.1000093236         0.0000000000  # Al
26 1         6.0750069927         6.0750069927         0.0000000000  # Al
27 1         6.0750069927         8.1000093236         2.0250023309  # Al
28 1         8.1000093236         6.0750069927         2.0250023309  # Al
29 1         8.1000093236         8.1000093236         4.0500046618  # Al
30 1         6.0750069927         6.0750069927         4.0500046618  # Al
31 1         6.0750069927         8.1000093236         6.0750069927  # Al
32 1         8.1000093236         6.0750069927         6.0750069927  # Al
33 1        12.1500139854         4.0500046618         0.0000000000  # Al
34 1        10.1250116545         2.0250023309         0.0000000000  # Al
35 1        10.1250116545         4.0500046618         2.0250023309  # Al
36 1        12.1500139854         2.0250023309         2.0250023309  # Al
37 1        12.1500139854         4.0500046618         4.0500046618  # Al
38 1        10.1250116545         2.0250023309         4.0500046618  # Al
39 1        10.1250116545         4.0500046618         6.0750069927  # Al
40 1        12.1500139854         2.0250023309         6.0750069927  # Al
41 1        12.1500139854         8.1000093236         0.0000000000  # Al
42 1        10.1250116545         6.0750069927         0.0000000000  # Al
43 1        10.1250116545         8.1000093236         2.0250023309  # Al
44 1        12.1500139854         6.0750069927         2.0250023309  # Al
45 1        12.1500139854         8.1000093236         4.0500046618  # Al
46 1        10.1250116545         6.0750069927         4.0500046618  # Al
47 1        10.1250116545         8.1000093236         6.0750069927  # Al
48 1        12.1500139854         6.0750069927         6.0750069927  # Al
49 1        16.2000186472         4.0500046618         0.0000000000  # Al
50 1        14.1750163163         2.0250023309         0.0000000000  # Al
51 1        14.1750163163         4.0500046618         2.0250023309  # Al
52 1        16.2000186472         2.0250023309         2.0250023309  # Al
53 1        16.2000186472         4.0500046618         4.0500046618  # Al
54 1        14.1750163163         2.0250023309         4.0500046618  # Al
55 1        14.1750163163         4.0500046618         6.0750069927  # Al
56 1        16.2000186472         2.0250023309         6.0750069927  # Al
57 1        16.2000186472         8.1000093236         0.0000000000  # Al
58 1        14.1750163163         6.0750069927         0.0000000000  # Al
59 1        14.1750163163         8.1000093236         2.0250023309  # Al
60 1        16.2000186472         6.0750069927         2.0250023309  # Al
61 1        16.2000186472         8.1000093236         4.0500046618  # Al
62 1        14.1750163163         6.0750069927         4.0500046618  # Al
63 1        14.1750163163         8.1000093236         6.0750069927  # Al
64 1        16.2000186472         6.0750069927         6.0750069927  # Al
65 1        20.2500233090         4.0500046618         0.0000000000  # Al
66 1        18.2250209781         2.0250023309         0.0000000000  # Al
67 1        18.2250209781         4.0500046618         2.0250023309  # Al
68 1        20.2500233090         2.0250023309         2.0250023309  # Al
69 1        20.2500233090         4.0500046618         4.0500046618  # Al
70 1        18.2250209781         2.0250023309         4.0500046618  # Al
71 1        18.2250209781         4.0500046618         6.0750069927  # Al
72 1        20.2500233090         2.0250023309         6.0750069927  # Al
73 1        20.2500233090         8.1000093236         0.0000000000  # Al
74 1        18.2250209781         6.0750069927         0.0000000000  # Al
75 1        18.2250209781         8.1000093236         2.0250023309  # Al
76 1        20.2500233090         6.0750069927         2.0250023309  # Al
77 1        20.2500233090         8.1000093236         4.0500046618  # Al
78 1        18.2250209781         6.0750069927         4.0500046618  # Al
79 1        18.2250209781         8.1000093236         6.0750069927  # Al
80 1        20.2500233090         6.0750069927         6.0750069927  # Al
81 1        24.3000279708         4.0500046618         0.0000000000  # Al
82 1        22.2750256399         2.0250023309         0.0000000000  # Al
83 1        22.2750256399         4.0500046618         2.0250023309  # Al
84 1        24.3000279708         2.0250023309         2.0250023309  # Al
85 1        24.3000279708         4.0500046618         4.0500046618  # Al
86 1        22.2750256399         2.0250023309         4.0500046618  # Al
87 1        22.2750256399         4.0500046618         6.0750069927  # Al
88 1        24.3000279708         2.0250023309         6.0750069927  # Al
89 1        24.3000279708         8.1000093236         0.0000000000  # Al
90 1        22.2750256399         6.0750069927         0.0000000000  # Al
91 1        22.2750256399         8.1000093236         2.0250023309  # Al
92 1        24.3000279708         6.0750069927         2.0250023309  # Al
93 1        24.3000279708         8.1000093236         4.0500046618  # Al
94 1        22.2750256399         6.0750069927         4.0500046618  # Al
95 1        22.2750256399         8.1000093236         6.0750069927  # Al
96 1        24.3000279708         6.0750069927         6.0750069927  # Al
97 1        28.3500326326         4.0500046618         0.0000000000  # Al
98 1        26.3250303017         2.0250023309         0.0000000000  # Al
99 1        26.3250303017         4.0500046618         2.0250023309  # Al
100 1        28.3500326326         2.0250023309         2.0250023309  # Al
101 1        28.3500326326         4.0500046618         4.0500046618  # Al
102 1        26.3250303017         2.0250023309         4.0500046618  # Al
103 1        26.3250303017         4.0500046618         6.0750069927  # Al
104 1        28.3500326326         2.0250023309         6.0750069927  # Al
105 1        28.3500326326         8.1000093236         0.0000000000  # Al
106 1        26.3250303017         6.0750069927         0.0000000000  # Al
107 1        26.3250303017         8.1000093236         2.0250023309  # Al
108 1        28.3500326326         6.0750069927         2.0250023309  # Al
109 1        28.3500326326         8.1000093236         4.0500046618  # Al
110 1        26.3250303017         6.0750069927         4.0500046618  # Al
111 1        26.3250303017         8.1000093236         6.0750069927  # Al
112 1        28.3500326326         6.0750069927         6.0750069927  # Al
113 1        32.4000372944         4.0500046618         0.0000000000  # Al
114 1        30.3750349635         2.0250023309         0.0000000000  # Al
115 1        30.3750349635         4.0500046618         2.0250023309  # Al
116 1        32.4000372944         2.0250023309         2.0250023309  # Al
117 1        32.4000372944         4.0500046618         4.0500046618  # Al
118 1        30.3750349635         2.0250023309         4.0500046618  # Al
119 1        30.3750349635         4.0500046618         6.0750069927  # Al
120 1        32.4000372944         2.0250023309         6.0750069927  # Al
121 1        32.4000372944         8.1000093236         0.0000000000  # Al
122 1        30.3750349635         6.0750069927         0.0000000000  # Al
123 1        30.3750349635         8.1000093236         2.0250023309  # Al
124 1        32.4000372944         6.0750069927         2.0250023309  # Al
125 1        32.4000372944         8.1000093236         4.0500046618  # Al
126 1        30.3750349635         6.0750069927         4.0500046618  # Al
127 1        30.3750349635         8.1000093236         6.0750069927  # Al
128 1        32.4000372944         6.0750069927         6.0750069927  # Al
129 1        36.4500419562         4.0500046618         0.0000000000  # Al
130 1        34.4250396253         2.0250023309         0.0000000000  # Al
131 1        34.4250396253         4.0500046618         2.0250023309  # Al
132 1        36.4500419562         2.0250023309         2.0250023309  # Al
133 1        36.4500419562         4.0500046618         4.0500046618  # Al
134 1        34.4250396253         2.0250023309         4.0500046618  # Al
135 1        34.4250396253         4.0500046618         6.0750069927  # Al
136 1        36.4500419562         2.0250023309         6.0750069927  # Al
137 1        36.4500419562         8.1000093236         0.0000000000  # Al
138 1        34.4250396253         6.0750069927         0.0000000000  # Al
139 1        34.4250396253         8.1000093236         2.0250023309  # Al
140 1        36.4500419562         6.0750069927         2.0250023309  # Al
141 1        36.4500419562         8.1000093236         4.0500046618  # Al
142 1        34.4250396253         6.0750069927         4.0500046618  # Al
143 1        34.4250396253         8.1000093236         6.0750069927  # Al
144 1        36.4500419562         6.0750069927         6.0750069927  # Al
145 1        40.5000466180         4.0500046618         0.0000000000  # Al
146 1        38.4750442871         2.0250023309         0.0000000000  # Al
147 1        38.4750442871         4.0500046618         2.0250023309  # Al
148 1        40.5000466180         2.0250023309         2.0250023309  # Al
149 1        40.5000466180         4.0500046618         4.0500046618  # Al
150 1        38.4750442871         2.0250023309         4.0500046618  # Al
151 1        38.4750442871         4.0500046618         6.0750069927  # Al
152 1        40.5000466180         2.0250023309         6.0750069927  # Al
153 1        40.5000466180         8.1000093236         0.0000000000  # Al
154 1        38.4750442871         6.0750069927         0.0000000000  # Al
155 1        38.4750442871         8.1000093236         2.0250023309  # Al
156 1        40.5000466180         6.0750069927         2.0250023309  # Al
157 1        40.5000466180         8.1000093236         4.0500046618  # Al
158 1        38.4750442871         6.0750069927         4.0500046618  # Al
159 1        38.4750442871         8.1000093236         6.0750069927  # Al
160 1        40.5000466180         6.0750069927         6.0750069927  # Al
161 1        44.5500512798         4.0500046618         0.0000000000  # Al
162 1        42.5250489489         2.0250023309         0.0000000000  # Al
163 1        42.5250489489         4.0500046618         2.0250023309  # Al
164 1        44.5500512798         2.0250023309         2.0250023309  # Al
165 1        44.5500512798         4.0500046618         4.0500046618  # Al
166 1        42.5250489489         2.0250023309         4.0500046618  # Al
167 1        42.5250489489         4.0500046618         6.0750069927  # Al
168 1        44.5500512798         2.0250023309         6.0750069927  # Al
169 1        44.5500512798         8.1000093236         0.0000000000  # Al
170 1        42.5250489489         6.0750069927         0.0000000000  # Al
171 1        42.5250489489         8.1000093236         2.0250023309  # Al
172 1        44.5500512798         6.0750069927         2.0250023309  # Al
173 1        44.5500512798         8.1000093236         4.0500046618  # Al
174 1        42.5250489489         6.0750069927         4.0500046618  # Al
175 1        42.5250489489         8.1000093236         6.0750069927  # Al
176 1        44.5500512798         6.0750069927         6.0750069927  # Al
177 1        48.6000559416         4.0500046618         0.0000000000  # Al
178 1        46.5750536107         2.0250023309         0.0000000000  # Al
179 1        46.5750536107         4.0500046618         2.0250023309  # Al
180 1        48.6000559416         2.0250023309         2.0250023309  # Al
181 1        48.6000559416         4.0500046618         4.0500046618  # Al
182 1        46.5750536107         2.0250023309         4.0500046618  # Al
183 1        46.5750536107         4.0500046618         6.0750069927  # Al
184 1        48.6000559416         2.0250023309         6.0750069927  # Al
185 1        48.6000559416         8.1000093236         0.0000000000  # Al
186 1        46.5750536107         6.0750069927         0.0000000000  # Al
187 1        46.5750536107         8.1000093236         2.0250023309  # Al
188 1        48.6000559416         6.0750069927         2.0250023309  # Al
189 1        48.6000559416         8.1000093236         4.0500046618  # Al
190 1        46.5750536107         6.0750069927         4.0500046618  # Al
191 1        46.5750536107         8.1000093236         6.0750069927  # Al
192 1        48.6000559416         6.0750069927         6.0750069927  # Al
193 1        52.6500606034         4.0500046618         0.0000000000  # Al
194 1        50.6250582725         2.0250023309         0.0000000000  # Al
195 1        50.6250582725         4.0500046618         2.0250023309  # Al
196 1        52.6500606034         2.0250023309         2.0250023309  # Al
197 1        52.6500606034         4.0500046618         4.0500046618  # Al
198 1        50.6250582725         2.0250023309         4.0500046618  # Al
199 1        50.6250582725         4.0500046618         6.0750069927  # Al
200 1        52.6500606034         2.0250023309         6.0750069927  # Al
201 1        52.6500606034         8.1000093236         0.0000000000  # Al
202 1        50.6250582725         6.0750069927         0.0000000000  # Al
203 1        50.6250582725         8.1000093236         2.0250023309  # Al
204 1        52.6500606034         6.0750069927         2.0250023309  # Al
205 1        52.6500606034         8.1000093236         4.0500046618  # Al
206 1        50.6250582725         6.0750069927         4.0500046618  # Al
207 1        50.6250582725         8.1000093236         6.0750069927  # Al
208 1        52.6500606034         6.0750069927         6.0750069927  # Al
209 1        56.7000652652         4.0500046618         0.0000000000  # Al
210 1        54.6750629343         2.0250023309         0.0000000000  # Al
211 1        54.6750629343         4.0500046618         2.0250023309  # Al
212 1        56.7000652652         2.0250023309         2.0250023309  # Al
213 1        56.7000652652         4.0500046618         4.0500046618  # Al
214 1        54.6750629343         2.0250023309         4.0500046618  # Al
215 1        54.6750629343         4.0500046618         6.0750069927  # Al
216 1        56.7000652652         2.0250023309         6.0750069927  # Al
217 1        56.7000652652         8.1000093236         0.0000000000  # Al
218 1        54.6750629343         6.0750069927         0.0000000000  # Al
219 1        54.6750629343         8.1000093236         2.0250023309  # Al
220 1        56.7000652652         6.0750069927         2.0250023309  # Al
221 1        56.7000652652         8.1000093236         4.0500046618  # Al
222 1        54.6750629343         6.0750069927         4.0500046618  # Al
223 1        54.6750629343         8.1000093236         6.0750069927  # Al
224 1        56.7000652652         6.0750069927         6.0750069927  # Al
225 1        60.7500699270         4.0500046618         0.0000000000  # Al
226 1        58.7250675961         2.0250023309         0.0000000000  # Al
227 1        58.7250675961         4.0500046618         2.0250023309  # Al
228 1        60.7500699270         2.0250023309         2.0250023309  # Al
229 1        60.7500699270         4.0500046618         4.0500046618  # Al
230 1        58.7250675961         2.0250023309         4.0500046618  # Al
231 1        58.7250675961         4.0500046618         6.0750069927  # Al
232 1        60.7500699270         2.0250023309         6.0750069927  # Al
233 1        60.7500699270         8.1000093236         0.0000000000  # Al
234 1        58.7250675961         6.0750069927         0.0000000000  # Al
235 1        58.7250675961         8.1000093236         2.0250023309  # Al
236 1        60.7500699270         6.0750069927         2.0250023309  # Al
237 1        60.7500699270         8.1000093236         4.0500046618  # Al
238 1        58.7250675961         6.0750069927         4.0500046618  # Al
239 1        58.7250675961         8.1000093236         6.0750069927  # Al
240 1        60.7500699270         6.0750069927         6.0750069927  # Al
241 1        64.8000745888         4.0500046618         0.0000000000  # Al
242 1        62.7750722579         2.0250023309         0.0000000000  # Al
243 1        62.7750722579         4.0500046618         2.0250023309  # Al
244 1        64.8000745888         2.0250023309         2.0250023309  # Al
245 1        64.8000745888         4.0500046618         4.0500046618  # Al
246 1        62.7750722579         2.0250023309         4.0500046618  # Al
247 1        62.7750722579         4.0500046618         6.0750069927  # Al
248 1        64.8000745888         2.0250023309         6.0750069927  # Al
249 1        64.8000745888         8.1000093236         0.0000000000  # Al
250 1        62.7750722579         6.0750069927         0.0000000000  # Al
251 1        62.7750722579         8.1000093236         2.0250023309  # Al
252 1        64.8000745888         6.0750069927         2.0250023309  # Al
253 1        64.8000745888         8.1000093236         4.0500046618  # Al
254 1        62.7750722579         6.0750069927         4.0500046618  # Al
255 1        62.7750722579         8.1000093236         6.0750069927  # Al
256 1        64.8000745888         6.0750069927         6.0750069927  # Al
257 1        68.8500792506         4.0500046618         0.0000000000  # Al
258 1        66.8250769197         2.0250023309         0.0000000000  # Al
259 1        66.8250769197         4.0500046618         2.0250023309  # Al
260 1        68.8500792506         2.0250023309         2.0250023309  # Al
261 1        68.8500792506         4.0500046618         4.0500046618  # Al
262 1        66.8250769197         2.0250023309         4.0500046618  # Al
263 1        66.8250769197         4.0500046618         6.0750069927  # Al
264 1        68.8500792506         2.0250023309         6.0750069927  # Al
265 1        68.8500792506         8.1000093236         0.0000000000  # Al
266 1        66.8250769197         6.0750069927         0.0000000000  # Al
267 1        66.8250769197         8.1000093236         2.0250023309  # Al
268 1        68.8500792506         6.0750069927         2.0250023309  # Al
269 1        68.8500792506         8.1000093236         4.0500046618  # Al
270 1        66.8250769197         6.0750069927         4.0500046618  # Al
271 1        66.8250769197         8.1000093236         6.0750069927  # Al
272 1        68.8500792506         6.0750069927         6.0750069927  # Al
273 1        72.9000839124         4.0500046618         0.0000000000  # Al
274 1        70.8750815815         2.0250023309         0.0000000000  # Al
275 1        70.8750815815         4.0500046618         2.0250023309  # Al
276 1        72.9000839124         2.0250023309         2.0250023309  # Al
277 1        72.9000839124         4.0500046618         4.0500046618  # Al
278 1        70.8750815815         2.0250023309         4.0500046618  # Al
279 1        70.8750815815         4.0500046618         6.0750069927  # Al
280 1        72.9000839124         2.0250023309         6.0750069927  # Al
281 1        72.9000839124         8.1000093236         0.0000000000  # Al
282 1        70.8750815815         6.0750069927         0.0000000000  # Al
283 1        70.8750815815         8.1000093236         2.0250023309  # Al
284 1        72.9000839124         6.0750069927         2.0250023309  # Al
285 1        72.9000839124         8.1000093236         4.0500046618  # Al
286 1        70.8750815815         6.0750069927         4.0500046618  # Al
287 1        70.8750815815         8.1000093236         6.0750069927  # Al
288 1        72.9000839124         6.0750069927         6.0750069927  # Al
289 1        76.9500885742         4.0500046618         0.0000000000  # Al
290 1        74.9250862433         2.0250023309         0.0000000000  # Al
291 1        74.9250862433         4.0500046618         2.0250023309  # Al
292 1        76.9500885742         2.0250023309         2.0250023309  # Al
293 1        76.9500885742         4.0500046618         4.0500046618  # Al
294 1        74.9250862433         2.0250023309         4.0500046618  # Al
295 1        74.9250862433         4.0500046618         6.0750069927  # Al
296 1        76.9500885742         2.0250023309         6.0750069927  # Al
297 1        76.9500885742         8.1000093236         0.0000000000  # Al
298 1        74.9250862433         6.0750069927         0.0000000000  # Al
299 1        74.9250862433         8.1000093236         2.0250023309  # Al
300 1        76.9500885742         6.0750069927         2.0250023309  # Al
301 1        76.9500885742         8.1000093236         4.0500046618  # Al
302 1        74.9250862433         6.0750069927         4.0500046618  # Al
303 1        74.9250862433         8.1000093236         6.0750069927  # Al
304 1        76.9500885742         6.0750069927         6.0750069927  # Al
305 1        81.0000932360         4.0500046618         0.0000000000  # Al
306 1        78.9750909051         2.0250023309         0.0000000000  # Al
307 1        78.9750909051         4.0500046618         2.0250023309  # Al
308 1        81.0000932360         2.0250023309         2.0250023309  # Al
309 1        81.0000932360         4.0500046618         4.0500046618  # Al
310 1        78.9750909051         2.0250023309         4.0500046618  # Al
311 1        78.9750909051         4.0500046618         6.0750069927  # Al
312 1        81.0000932360         2.0250023309         6.0750069927  # Al
313 1        81.0000932360         8.1000093236         0.0000000000  # Al
314 1        78.9750909051         6.0750069927         0.0000000000  # Al
315 1        78.9750909051         8.1000093236         2.0250023309  # Al
316 1        81.0000932360         6.0750069927         2.0250023309  # Al
317 1        81.0000932360         8.1000093236         4.0500046618  # Al
318 1        78.9750909051         6.0750069927         4.0500046618  # Al
319 1        78.9750909051         8.1000093236         6.0750069927  # Al
320 1        81.0000932360         6.0750069927         6.0750069927  # Al
321 1        85.0500978978         4.0500046618         0.0000000000  # Al
322 1        83.0250955669         2.0250023309         0.0000000000  # Al
323 1        83.0250955669         4.0500046618         2.0250023309  # Al
324 1        85.0500978978         2.0250023309         2.0250023309  # Al
325 1        85.0500978978         4.0500046618         4.0500046618  # Al
326 1        83.0250955669         2.0250023309         4.0500046618  # Al
327 1        83.0250955669         4.0500046618         6.0750069927  # Al
328 1        85.0500978978         2.0250023309         6.0750069927  # Al
329 1        85.0500978978         8.1000093236         0.0000000000  # Al
330 1        83.0250955669         6.0750069927         0.0000000000  # Al
331 1        83.0250955669         8.1000093236         2.0250023309  # Al
332 1        85.0500978978         6.0750069927         2.0250023309  # Al
333 1        85.0500978978         8.1000093236         4.0500046618  # Al
334 1        83.0250955669         6.0750069927         4.0500046618  # Al
335 1        83.0250955669         8.1000093236         6.0750069927  # Al
336 1        85.0500978978         6.0750069927         6.0750069927  # Al
337 1        89.1001025596         4.0500046618         0.0000000000  # Al
338 1        87.0751002287         2.0250023309         0.0000000000  # Al
339 1        87.0751002287         4.0500046618         2.0250023309  # Al
340 1        89.1001025596         2.0250023309         2.0250023309  # Al
341 1        89.1001025596         4.0500046618         4.0500046618  # Al
342 1        87.0751002287         2.0250023309         4.0500046618  # Al
343 1        87.0751002287         4.0500046618         6.0750069927  # Al
344 1        89.1001025596         2.0250023309         6.0750069927  # Al
345 1        89.1001025596         8.1000093236         0.0000000000  # Al
346 1        87.0751002287         6.0750069927         0.0000000000  # Al
347 1        87.0751002287         8.1000093236         2.0250023309  # Al
348 1        89.1001025596         6.0750069927         2.0250023309  # Al
349 1        89.1001025596         8.1000093236         4.0500046618  # Al
350 1        87.0751002287         6.0750069927         4.0500046618  # Al
351 1        87.0751002287         8.1000093236         6.0750069927  # Al
352 1        89.1001025596         6.0750069927         6.0750069927  # Al
353 1        93.1501072214         4.0500046618         0.0000000000  # Al
354 1        91.1251048905         2.0250023309         0.0000000000  # Al
355 1        91.1251048905         4.0500046618         2.0250023309  # Al
356 1        93.1501072214         2.0250023309         2.0250023309  # Al
357 1        93.1501072214         4.0500046618         4.0500046618  # Al
358 1        91.1251048905         2.0250023309         4.0500046618  # Al
359 1        91.1251048905         4.0500046618         6.0750069927  # Al
360 1        93.1501072214         2.0250023309         6.0750069927  # Al
361 1        93.1501072214         8.1000093236         0.0000000000  # Al
362 1        91.1251048905         6.0750069927         0.0000000000  # Al
363 1        91.1251048905         8.1000093236         2.0250023309  # Al
364 1        93.1501072214         6.0750069927         2.0250023309  # Al
365 1        93.1501072214         8.1000093236         4.0500046618  # Al
366 1        91.1251048905         6.0750069927         4.0500046618  # Al
367 1        91.1251048905         8.1000093236         6.0750069927  # Al
368 1        93.1501072214         6.0750069927         6.0750069927  # Al
369 1        97.2001118832         4.0500046618         0.0000000000  # Al
370 1        95.1751095523         2.0250023309         0.0000000000  # Al
371 1        95.1751095523         4.0500046618         2.0250023309  # Al
372 1        97.2001118832         2.0250023309         2.0250023309  # Al
373 1        97.2001118832         4.0500046618         4.0500046618  # Al
374 1        95.1751095523         2.0250023309         4.0500046618  # Al
375 1        95.1751095523         4.0500046618         6.0750069927  # Al
376 1        97.2001118832         2.0250023309         6.0750069927  # Al
377 1        97.2001118832         8.1000093236         0.0000000000  # Al
378 1        95.1751095523         6.0750069927         0.0000000000  # Al
379 1        95.1751095523         8.1000093236         2.0250023309  # Al
380 1        97.2001118832         6.0750069927         2.0250023309  # Al
381 1        97.2001118832         8.1000093236         4.0500046618  # Al
382 1        95.1751095523         6.0750069927         4.0500046618  # Al
383 1        95.1751095523         8.1000093236         6.0750069927  # Al
384 1        97.2001118832         6.0750069927         6.0750069927  # Al
385 1       101.2501165450         4.0500046618         0.0000000000  # Al
386 1        99.2251142141         2.0250023309         0.0000000000  # Al
387 1        99.2251142141         4.0500046618         2.0250023309  # Al
388 1       101.2501165450         2.0250023309         2.0250023309  # Al
389 1       101.2501165450         4.0500046618         4.0500046618  # Al
390 1        99.2251142141         2.0250023309         4.0500046618  # Al
391 1        99.2251142141         4.0500046618         6.0750069927  # Al
392 1       101.2501165450         2.0250023309         6.0750069927  # Al
393 1       101.2501165450         8.1000093236         0.0000000000  # Al
394 1        99.2251142141         6.0750069927         0.0000000000  # Al
395 1        99.2251142141         8.1000093236         2.0250023309  # Al
396 1       101.2501165450         6.0750069927         2.0250023309  # Al
397 1       101.2501165450         8.1000093236         4.0500046618  # Al