LAMMPS data file via write_data, version 4 May 2022, timestep = 0

4 atoms
1 atom types

0.0074976691073037624 4.05750233089273 xlo xhi
0.0074976691073005385 4.057502330892727 ylo yhi
0.007497669107291453 4.057502330892717 zlo zhi

Masses

1 26.982

Atoms # atomic

1 1 4.057502330892728 4.057502330892725 0.007497669107291666 -1 -1 0
2 1 2.032500000000015 2.0325000000000126 0.007497669107291664 0 0 0
3 1 2.032500000000015 4.057502330892725 2.0325000000000046 0 -1 0
4 1 4.057502330892728 2.032500000000012 2.032500000000005 -1 0 0

Velocities

1 0 0 0
2 0 0 0
3 0 0 0
4 0 0 0
