# LAMMPS data file written by Ovito Pro 3.0.0-dev766
8 atoms
1 atom types
0.0 3.57371 xlo xhi
0.0 3.57371 ylo yhi
0.0 3.57371 zlo zhi

Atoms  # atomic

1 1 0.8934275 2.6802825 0.8934275
2 1 0.0 0.0 1.786855
3 1 0.8934275 0.8934275 2.6802825
4 1 0.0 1.786855 0.0
5 1 2.6802825 2.6802825 2.6802825
6 1 1.786855 0.0 0.0
7 1 2.6802825 0.8934275 0.8934275
8 1 1.786855 1.786855 1.786855
