
***************************************************************
*                 Welcome to use GPUMD                        *
*     (Graphics Processing Units Molecular Dynamics)          *
*                    Version 3.9.3                            *
*              This is the gpumd executable                   *
***************************************************************


---------------------------------------------------------------
Compiling options:
---------------------------------------------------------------

DEBUG is off: Use different PRNG seeds for different runs.

---------------------------------------------------------------
GPU information:
---------------------------------------------------------------

number of GPUs = 1
Device id:                   0
    Device name:             NVIDIA A100 80GB PCIe
    Compute capability:      8.0
    Amount of global memory: 79.151 GB
    Number of SMs:           108

---------------------------------------------------------------
Started running GPUMD.
---------------------------------------------------------------


---------------------------------------------------------------
Started initializing positions and related parameters.
---------------------------------------------------------------

Number of atoms is 17920.
Use free boundary conditions along x.
Use free boundary conditions along y.
Use periodic boundary conditions along z.
Use orthogonal box.
Box lengths are
    Lx =     2.3743319702e+02 A
    Ly =     2.3743319702e+02 A
    Lz =     3.8798400878e+02 A
Do not specify initial velocities here.
Have no grouping method.
There is only one atom type.
    17920 atoms of type 0.

---------------------------------------------------------------
Finished initializing positions and related parameters.
---------------------------------------------------------------


---------------------------------------------------------------
Started executing the commands in run.in.
---------------------------------------------------------------

Use the NEP4 potential with 1 atom type.
    type 0 (C with Z = 6).
    radial cutoff = 7 A.
    angular cutoff = 4 A.
    MN_radial = 358.
    MN_angular = 71.
    enlarged MN_radial = 448.
    enlarged MN_angular = 89.
    n_max_radial = 12.
    n_max_angular = 8.
    basis_size_radial = 16.
    basis_size_angular = 12.
    l_max_3body = 4.
    l_max_4body = 2.
    l_max_5body = 1.
    ANN = 67-100-1.
    number of neural network parameters = 6901.
    number of descriptor parameters = 338.
    total number of parameters = 7239.
    Add DFT-D3:
        potential cutoff = 12 Angstrom
        coordination number cutoff = 6 Angstrom
        functional = pbe
            s6 = 1
            s8 = 0.7875
            a1 = 0.4289
            a2 = 2.34992 Angstrom
Initialized velocities with T = 300 K.
Use Nose-Hoover thermostat and Parrinello-Rahman barostat.
Use NPT ensemble for this run.
Thermostat: t_start is 300.000000, t_stop is 300.000000, t_period is 100.000000 timesteps
xx will not be changed.
xy will not be changed.
xz will not be changed.
yx will not be changed.
yy will not be changed.
yz will not be changed.
zx will not be changed.
zy will not be changed.
zz : p_start is 0.000000, p_stop is 0.000000, p_period is 1000.000000 timesteps
Time step for this run is 1 fs.
Dump thermo every 20000 steps.
Dump position.
    every 50000 steps.
Run 500000 steps.
MTTK initializing...
    50000 steps completed.
    100000 steps completed.
    150000 steps completed.
    200000 steps completed.
    250000 steps completed.
    300000 steps completed.
    350000 steps completed.
    400000 steps completed.
    450000 steps completed.
    500000 steps completed.

---------------------------------------------------------------
Time used for this run = 3161.75 second.
Speed of this run = 2.83388e+06 atom*step/second.
---------------------------------------------------------------

Use NVT ensemble for this run.
    choose the Nose-Hoover chain method.
    initial temperature is 300 K.
    final temperature is 300 K.
    tau_T is 100 time_step.
Time step for this run is 1 fs.
Dump thermo every 20000 steps.
Dump position.
    every 50000 steps.
Run 500000 steps.
    50000 steps completed.
    100000 steps completed.
    150000 steps completed.
    200000 steps completed.
    250000 steps completed.
    300000 steps completed.
    350000 steps completed.
    400000 steps completed.
    450000 steps completed.
    500000 steps completed.

---------------------------------------------------------------
Time used for this run = 3132.06 second.
Speed of this run = 2.86074e+06 atom*step/second.
---------------------------------------------------------------

Use NVE ensemble for this run.
Dump extended XYZ.
    every 8 steps.
    with velocity data.
Run 500000 steps.
    50000 steps completed.
    100000 steps completed.
    150000 steps completed.
    200000 steps completed.
    250000 steps completed.
    300000 steps completed.
    350000 steps completed.
    400000 steps completed.
    450000 steps completed.
    500000 steps completed.

---------------------------------------------------------------
Time used for this run = 5217.92 second.
Speed of this run = 1.71716e+06 atom*step/second.
---------------------------------------------------------------


---------------------------------------------------------------
Finished executing the commands in run.in.
---------------------------------------------------------------


---------------------------------------------------------------
Time used = 11511.759593 s.
---------------------------------------------------------------


---------------------------------------------------------------
Finished running GPUMD.
---------------------------------------------------------------

